|***********************************************************************
|
|           IBIS Models For ACEX1K Device By ALTERA
|
|***********************************************************************
|
[IBIS Ver]  2.1
[File Name] acex1k.ibs
[File Rev]  1.3
|1.0 - Initial
|1.2 - RCL package and pin values were updated. COMMETNS were added
|    - RCL values are for 484 FBGA
|    - The files name was updated
|    - Input models were added
|1.3 - Tab characters in the file were removed
|    - Blank character in [Component] keyword was removed
[Date]      June 2004
[Source]    Viewlogic Consultant Services
|
[Notes]
Input and output Models for ACEX1K devices.

The package for this model is a sample IBIS template.
It does not contain a device pinout. Add the device pinout to match the
package type and the pinout for the particular design.
These models were extracted from HSPICE models. 
All models are preliminary.
Only driver model data is provided in these models.

Models with "3" in their signal name means they have 3.3V vccio.
Models with "2" in their signal name means they have 2.5V vccio.
Models with "S" in their signal name means they have slow slew rate 'on'.
Models with "P" in their signal name means they have PCI clamp diode 'on'.
Models with "sP" in their signal name means they have PCI clamp 
diode and slow slew rate 'on'.

Package model  is a dummy model. Actual package pinout model must
be created by the user for any specific programmed pinout.

COMMENTS:
All models in TYP, MIN, and MAX corners.

Model Conditions:
TYP:          2.5V   and 3.3V   TEMP=25C   Process = TT
MIN: (slow)   2.3V   and 3.0V   TEMP=85C   process = SS
MAX: (fast)   2.7V   and 3.6V   TEMP=0C    process = FF

Models extracted from SPICE simulations Altera SPICE models.
|
Model Generated Using VML vVML Editor - 2.15
|
QA using ibis2xtk -pv .0001 -ae .00001 -vt .00001
|
|
[Disclaimer]    Data is for modeling purposes only and is not guaranteed
|
[Copyright]     Copyright 2000, Altera Corporation.  All rights reserved
[Component]     ACEX1K
[Manufacturer]  Altera
[Package]
|
| variable       typ        min       max
R_pkg            460.00m    NA        NA
L_pkg            1.00nH     NA        NA
C_pkg            1.00pF     NA        NA
|
[Pin] signal_name      model_name                  R_pin   L_pin   C_pin
1      acex1k_2           acex1k_2                    460.00m  1.00nH  1.00pF
2      acex1k_2_s         acex1k_2_s                  460.00m  1.00nH  1.00pF
3      acex1k_2_p         acex1k_2_p                  460.00m  1.00nH  1.00pF
4      acex1k_2_sp        acex1k_2_sp                 460.00m  1.00nH  1.00pF
5      acex1k_3           acex1k_3                    460.00m  1.00nH  1.00pF
6      acex1k_3_s         acex1k_3_s                  460.00m  1.00nH  1.00pF
7      acex1k_3_p         acex1k_3_p                  460.00m  1.00nH  1.00pF
8      acex1k_3_sp        acex1k_3_sp                 460.00m  1.00nH  1.00pF
9      acex1k_3_in        acex1k_3_in                 460.00m  1.00nH  1.00pF
10     acex1k_2_in        acex1k_2_in                 460.00m  1.00nH  1.00pF
|
[Model]     acex1k_3_sp
Model_type   I/O
|
Vinl = 0.8000
Vinh = 2.0000
Vmeas = 1.5000
Cref = 5.00e-11
Rref = 1.00e+06
Vref = 0.00e+00
C_comp      9.0000pF   NA      NA
|
|
[Temperature Range]   25.0000            85.0000           0.0000
[Voltage Range]        3.3000           3.0000              3.6000
[Pulldown]
| voltage            I(typ)        I(min)          I(max)
-5.000              -1.276e-03      -1.079e-03      -1.427e-03
-3.000              -1.276e-03      -1.079e-03      -1.427e-03
-2.000              -1.276e-03      -1.079e-03      -1.427e-03
-1.490              -1.276e-03      -1.079e-03      -1.427e-03
-1.230              -1.276e-03      -1.079e-03      -1.427e-03
-1.100              -1.276e-03      -1.079e-03      -1.427e-03
-1.030              -1.276e-03      -1.079e-03      -1.427e-03
-0.990              -9.110e-02      -3.472e-02      -1.367e-01
-0.930              -1.180e-01      -5.009e-02      -1.568e-01
-0.870              -1.316e-01      -7.047e-02      -1.599e-01
-0.840              -1.325e-01      -7.987e-02      -1.574e-01
-0.820              -1.315e-01      -8.482e-02      -1.552e-01
-0.800              -1.299e-01      -8.836e-02      -1.527e-01
-0.790              -1.288e-01      -8.957e-02      -1.514e-01
-0.780              -1.278e-01      -9.042e-02      -1.500e-01
-0.770              -1.266e-01      -9.093e-02      -1.486e-01
-0.760              -1.254e-01      -9.114e-02      -1.472e-01
-0.750              -1.241e-01      -9.108e-02      -1.458e-01
-0.740              -1.228e-01      -9.079e-02      -1.443e-01
-0.730              -1.215e-01      -9.031e-02      -1.428e-01
-0.710              -1.188e-01      -8.891e-02      -1.398e-01
-0.690              -1.159e-01      -8.711e-02      -1.366e-01
-0.660              -1.115e-01      -8.397e-02      -1.317e-01
-0.620              -1.054e-01      -7.934e-02      -1.248e-01
-0.580              -9.910e-02      -7.447e-02      -1.176e-01
-0.520              -8.935e-02      -6.695e-02      -1.063e-01
-0.440              -7.608e-02      -5.677e-02      -9.067e-02
-0.360              -6.259e-02      -4.650e-02      -7.476e-02
-0.270              -4.721e-02      -3.487e-02      -5.654e-02
-0.180              -3.163e-02      -2.322e-02      -3.799e-02
-0.090              -1.588e-02      -1.158e-02      -1.914e-02
-0.010              -1.770e-03      -1.281e-03      -2.140e-03
0.030               5.237e-03       3.788e-03       6.340e-03
0.070               1.199e-02       8.674e-03       1.453e-02
0.110               1.848e-02       1.338e-02       2.241e-02
0.150               2.471e-02       1.789e-02       3.000e-02
0.190               3.069e-02       2.223e-02       3.728e-02
0.230               3.641e-02       2.638e-02       4.427e-02
0.270               4.187e-02       3.036e-02       5.097e-02
0.310               4.709e-02       3.416e-02       5.737e-02
0.350               5.206e-02       3.778e-02       6.349e-02
0.390               5.678e-02       4.123e-02       6.931e-02
0.430               6.126e-02       4.451e-02       7.485e-02
0.470               6.550e-02       4.762e-02       8.011e-02
0.510               6.950e-02       5.056e-02       8.508e-02
0.550               7.327e-02       5.333e-02       8.978e-02
0.590               7.680e-02       5.594e-02       9.420e-02
0.630               8.010e-02       5.839e-02       9.834e-02
0.670               8.317e-02       6.067e-02       1.022e-01
0.710               8.602e-02       6.279e-02       1.058e-01
0.750               8.863e-02       6.476e-02       1.091e-01
0.790               9.101e-02       6.656e-02       1.121e-01
0.830               9.315e-02       6.821e-02       1.149e-01
0.870               9.506e-02       6.971e-02       1.173e-01
0.910               9.672e-02       7.104e-02       1.194e-01
0.950               9.813e-02       7.222e-02       1.212e-01
0.990               9.932e-02       7.325e-02       1.227e-01
1.040               1.005e-01       7.433e-02       1.242e-01
1.090               1.015e-01       7.521e-02       1.254e-01
1.160               1.025e-01       7.618e-02       1.266e-01
1.250               1.034e-01       7.709e-02       1.278e-01
1.370               1.043e-01       7.795e-02       1.289e-01
1.540               1.053e-01       7.878e-02       1.300e-01
1.800               1.062e-01       7.966e-02       1.311e-01
2.250               1.074e-01       8.068e-02       1.326e-01
3.740               1.103e-01       8.294e-02       1.360e-01
4.540               1.128e-01       8.451e-02       1.398e-01
5.080               1.189e-01       8.774e-02       1.491e-01
5.510               1.302e-01       9.394e-02       1.665e-01
5.890               1.486e-01       1.044e-01       1.936e-01
6.240               1.751e-01       1.202e-01       2.315e-01
6.580               2.116e-01       1.429e-01       2.820e-01
6.920               2.603e-01       1.744e-01       3.473e-01
7.190               3.082e-01       2.066e-01       4.097e-01
7.330               3.364e-01       2.260e-01       4.458e-01
7.400               3.513e-01       2.364e-01       4.648e-01
7.440               3.601e-01       2.425e-01       4.759e-01
7.470               3.668e-01       3.451e-01       4.844e-01
7.550               3.852e-01       3.451e-01       5.075e-01
7.590               3.947e-01       3.451e-01       5.194e-01
7.620               4.019e-01       3.451e-01       5.284e-01
7.640               5.022e-01       3.451e-01       5.344e-01
7.990               5.022e-01       3.451e-01       6.484e-01
8.170               5.022e-01       3.451e-01       7.123e-01
8.270               5.022e-01       3.451e-01       7.494e-01
8.320               5.022e-01       3.451e-01       7.683e-01
8.350               5.022e-01       3.451e-01       8.789e-01
8.600               5.022e-01       3.451e-01       8.789e-01
|
[Pullup]
| voltage            I(typ)        I(min)          I(max)
8.300              -6.755e-01      -4.083e-01      -9.268e-01
6.450              -6.755e-01      -4.083e-01      -9.268e-01
5.520              -6.755e-01      -4.083e-01      -9.268e-01
5.050              -6.755e-01      -4.083e-01      -9.268e-01
4.810              -6.755e-01      -4.083e-01      -9.268e-01
4.690              -6.755e-01      -4.083e-01      -9.268e-01
4.620              -6.755e-01      -4.083e-01      -9.268e-01
4.580              -6.755e-01      -4.083e-01      -9.635e-02
4.440              -6.755e-01      -4.083e-01      -9.657e-02
4.370              -6.755e-01      -4.083e-01      -9.647e-02
4.330              -6.755e-01      -4.083e-01      -9.640e-02
4.300              -6.615e-02      -4.083e-01      -9.634e-02
4.180              -6.626e-02      -4.083e-01      -9.612e-02
4.120              -6.631e-02      -4.083e-01      -9.600e-02
4.060              -6.626e-02      -4.083e-01      -9.588e-02
4.030              -6.622e-02      -4.083e-01      -9.582e-02
4.010              -6.619e-02      -4.083e-01      -9.578e-02
3.990              -6.617e-02      -4.205e-02      -9.573e-02
3.800              -6.589e-02      -4.207e-02      -9.531e-02
3.700              -6.573e-02      -4.206e-02      -9.508e-02
3.430              -6.528e-02      -4.178e-02      -9.440e-02
3.200              -6.485e-02      -4.151e-02      -9.375e-02
3.000              -6.445e-02      -4.125e-02      -9.311e-02
2.830              -6.407e-02      -4.101e-02      -9.249e-02
2.680              -6.370e-02      -4.079e-02      -9.186e-02
2.550              -6.334e-02      -4.058e-02      -9.124e-02
2.430              -6.298e-02      -4.037e-02      -9.058e-02
2.330              -6.264e-02      -4.018e-02      -8.996e-02
2.240              -6.230e-02      -3.999e-02      -8.931e-02
2.160              -6.197e-02      -3.981e-02      -8.866e-02
2.090              -6.165e-02      -3.964e-02      -8.802e-02
2.020              -6.130e-02      -3.946e-02      -8.728e-02
1.960              -6.096e-02      -3.929e-02      -8.658e-02
1.900              -6.059e-02      -3.911e-02      -8.578e-02
1.840              -6.018e-02      -3.892e-02      -8.488e-02
1.780              -5.971e-02      -3.870e-02      -8.388e-02
1.730              -5.928e-02      -3.850e-02      -8.296e-02
1.680              -5.880e-02      -3.829e-02      -8.195e-02
1.630              -5.826e-02      -3.805e-02      -8.086e-02
1.580              -5.766e-02      -3.779e-02      -7.969e-02
1.530              -5.699e-02      -3.749e-02      -7.844e-02
1.480              -5.625e-02      -3.716e-02      -7.710e-02
1.430              -5.543e-02      -3.678e-02      -7.568e-02
1.380              -5.454e-02      -3.635e-02      -7.417e-02
1.330              -5.358e-02      -3.587e-02      -7.258e-02
1.280              -5.254e-02      -3.532e-02      -7.091e-02
1.230              -5.142e-02      -3.471e-02      -6.915e-02
1.180              -5.023e-02      -3.405e-02      -6.731e-02
1.130              -4.896e-02      -3.332e-02      -6.538e-02
1.080              -4.761e-02      -3.252e-02      -6.337e-02
1.030              -4.619e-02      -3.167e-02      -6.128e-02
0.980              -4.468e-02      -3.074e-02      -5.911e-02
0.930              -4.311e-02      -2.976e-02      -5.685e-02
0.880              -4.146e-02      -2.871e-02      -5.451e-02
0.830              -3.973e-02      -2.760e-02      -5.209e-02
0.780              -3.792e-02      -2.643e-02      -4.959e-02
0.730              -3.604e-02      -2.519e-02      -4.700e-02
0.680              -3.408e-02      -2.389e-02      -4.433e-02
0.630              -3.205e-02      -2.253e-02      -4.158e-02
0.580              -2.994e-02      -2.110e-02      -3.875e-02
0.530              -2.776e-02      -1.961e-02      -3.584e-02
0.470              -2.504e-02      -1.775e-02      -3.224e-02
0.410              -2.221e-02      -1.579e-02      -2.852e-02
0.350              -1.928e-02      -1.374e-02      -2.468e-02
0.290              -1.623e-02      -1.160e-02      -2.073e-02
0.230              -1.308e-02      -9.370e-03      -1.666e-02
0.170              -9.819e-03      -7.052e-03      -1.248e-02
0.110              -6.452e-03      -4.645e-03      -8.180e-03
0.050              -2.977e-03      -2.148e-03      -3.766e-03
0.000               0.000e+00       0.000e+00       0.000e+00
-0.030               1.818e-03       1.317e-03       2.293e-03
-0.100               6.132e-03       4.462e-03       7.711e-03
-0.180               1.117e-02       8.162e-03       1.400e-02
-0.270               1.694e-02       1.244e-02       2.118e-02
-0.370               2.346e-02       1.731e-02       2.926e-02
-0.500               3.206e-02       2.379e-02       3.984e-02
-0.570               3.672e-02       2.731e-02       4.553e-02
-0.620               4.004e-02       2.980e-02       4.953e-02
-0.650               4.201e-02       3.125e-02       5.189e-02
-0.670               4.331e-02       3.216e-02       5.344e-02
-0.690               4.460e-02       3.300e-02       5.497e-02
-0.710               4.586e-02       3.376e-02       5.649e-02
-0.730               4.710e-02       3.443e-02       5.798e-02
-0.750               4.829e-02       3.501e-02       5.945e-02
-0.770               4.940e-02       3.553e-02       6.089e-02
-0.860               5.226e-02       3.799e-02       6.593e-02
-1.010               5.549e-02       4.303e-02       6.664e-02
-1.660               8.286e-02       6.701e-02       9.573e-02
-1.990               9.714e-02       7.929e-02       1.116e-01
-2.160               1.045e-01       8.562e-02       1.198e-01
-2.250               1.083e-01       8.897e-02       1.241e-01
-2.300               1.105e-01       9.083e-02       1.265e-01
-2.330               2.112e-01       1.919e-01       1.279e-01
-2.580               2.112e-01       1.919e-01       1.398e-01
-2.710               2.112e-01       1.919e-01       1.459e-01
-2.780               2.112e-01       1.919e-01       1.492e-01
-2.820               2.112e-01       1.919e-01       1.511e-01
-2.840               2.112e-01       1.919e-01       2.511e-01
-5.300               2.112e-01       1.919e-01       2.511e-01
|
[Ramp]
dV/dt_r   1.3723/0.3600n   1.0502/0.5300n   1.6336/0.2900n
dV/dt_f   1.7395/4.3600n   1.4984/5.6200n   1.9444/3.6300n
|
|
|
[GND_Clamp]
|Voltage   I(typ)       I(min)       I(max)
-5.000   -3.936e+00   -3.986e+00   -3.920e+00
-4.740   -3.680e+00   -3.730e+00   -3.662e+00
-4.510   -3.453e+00   -3.504e+00   -3.434e+00
-4.190   -3.139e+00   -3.190e+00   -3.119e+00
-3.720   -2.677e+00   -2.730e+00   -2.657e+00
-3.310   -2.276e+00   -2.329e+00   -2.255e+00
-2.960   -1.934e+00   -1.988e+00   -1.913e+00
-2.660   -1.641e+00   -1.696e+00   -1.620e+00
-2.400   -1.388e+00   -1.444e+00   -1.366e+00
-2.180   -1.175e+00   -1.231e+00   -1.153e+00
-1.990   -9.914e-01   -1.048e+00   -9.691e-01
-1.830   -8.376e-01   -8.950e-01   -8.151e-01
-1.690   -7.037e-01   -7.616e-01   -6.810e-01
-1.570   -5.898e-01   -6.481e-01   -5.669e-01
-1.470   -4.955e-01   -5.542e-01   -4.725e-01
-1.390   -4.208e-01   -4.797e-01   -3.977e-01
-1.320   -3.561e-01   -4.151e-01   -3.330e-01
-1.260   -3.014e-01   -3.604e-01   -2.783e-01
-1.210   -2.564e-01   -3.153e-01   -2.334e-01
-1.170   -2.210e-01   -2.796e-01   -1.982e-01
-1.130   -1.862e-01   -2.444e-01   -1.637e-01
-1.100   -1.607e-01   -2.184e-01   -1.386e-01
-1.070   -1.358e-01   -1.928e-01   -1.143e-01
-1.050   -1.196e-01   -1.760e-01   -9.867e-02
-1.030   -1.039e-01   -1.595e-01   -8.367e-02
-1.010   -8.877e-02   -1.433e-01   -6.946e-02
-0.990   -7.428e-02   -1.274e-01   -5.625e-02
-0.970   -6.063e-02   -1.119e-01   -4.433e-02
-0.960   -5.419e-02   -1.043e-01   -3.895e-02
-0.950   -4.805e-02   -9.689e-02   -3.401e-02
-0.940   -4.225e-02   -8.961e-02   -2.956e-02
-0.930   -3.681e-02   -8.249e-02   -2.562e-02
-0.920   -3.179e-02   -7.554e-02   -2.220e-02
-0.910   -2.721e-02   -6.880e-02   -1.928e-02
-0.900   -2.310e-02   -6.227e-02   -1.685e-02
-0.890   -1.948e-02   -5.598e-02   -1.483e-02
-0.880   -1.636e-02   -4.995e-02   -1.317e-02
-0.870   -1.371e-02   -4.422e-02   -1.181e-02
-0.860   -1.150e-02   -3.880e-02   -1.068e-02
-0.840   -8.222e-03   -2.904e-02   -8.908e-03
-0.830   -7.029e-03   -2.475e-02   -8.189e-03
-0.820   -6.060e-03   -2.087e-02   -7.545e-03
-0.810   -5.266e-03   -1.742e-02   -6.958e-03
-0.800   -4.607e-03   -1.440e-02   -6.416e-03
-0.790   -4.054e-03   -1.180e-02   -5.910e-03
-0.780   -3.581e-03   -9.600e-03   -5.434e-03
-0.770   -3.170e-03   -7.763e-03   -4.985e-03
-0.760   -2.809e-03   -6.252e-03   -4.559e-03
-0.750   -2.489e-03   -5.023e-03   -4.156e-03
-0.740   -2.203e-03   -4.034e-03   -3.773e-03
-0.730   -1.945e-03   -3.242e-03   -3.412e-03
-0.720   -1.712e-03   -2.611e-03   -3.072e-03
-0.710   -1.503e-03   -2.110e-03   -2.753e-03
-0.700   -1.314e-03   -1.711e-03   -2.455e-03
-0.690   -1.145e-03   -1.393e-03   -2.178e-03
-0.680   -9.946e-04   -1.139e-03   -1.922e-03
-0.670   -8.609e-04   -9.352e-04   -1.688e-03
-0.660   -7.431e-04   -7.714e-04   -1.474e-03
-0.650   -6.401e-04   -6.393e-04   -1.282e-03
-0.640   -5.508e-04   -5.324e-04   -1.110e-03
-0.630   -4.739e-04   -4.456e-04   -9.576e-04
-0.620   -4.083e-04   -3.750e-04   -8.239e-04
-0.610   -3.528e-04   -3.175e-04   -7.077e-04
-0.600   -3.061e-04   -2.707e-04   -6.078e-04
-0.590   -2.673e-04   -2.324e-04   -5.228e-04
-0.580   -2.351e-04   -2.012e-04   -4.512e-04
-0.570   -2.087e-04   -1.757e-04   -3.915e-04
-0.560   -1.871e-04   -1.549e-04   -3.423e-04
-0.550   -1.696e-04   -1.379e-04   -3.020e-04
-0.530   -1.439e-04   -1.127e-04   -2.430e-04
-0.510   -1.274e-04   -9.600e-05   -2.051e-04
-0.480   -1.131e-04   -8.070e-05   -1.732e-04
-0.440   -1.046e-04   -7.070e-05   -1.549e-04
 0.890   -9.690e-05   -6.120e-05   -1.417e-04
 1.560   -9.270e-05   -5.770e-05   -1.365e-04
 2.060   -8.170e-05   -4.740e-05   -1.246e-04
 2.560   -5.820e-05   -2.680e-05   -9.890e-05
 2.920   -3.340e-05   -5.500e-06   -7.160e-05
 3.110   -1.760e-05    8.100e-06   -5.420e-05
 3.300    0.000e+00    3.340e-05   -3.480e-05
|
[POWER_Clamp]
|Voltage   I(typ)       I(min)       I(max)
 0.000    0.000e+00    3.340e-05    0.000e+00
-0.010    1.000e-06    3.660e-05    1.200e-06
-0.040    3.900e-06    4.970e-05    5.000e-06
-0.070    6.900e-06    6.980e-05    8.800e-06
-0.090    8.900e-06    8.860e-05    1.140e-05
-0.110    1.090e-05    1.128e-04    1.390e-05
-0.130    1.300e-05    1.432e-04    1.650e-05
-0.150    1.500e-05    1.806e-04    1.910e-05
-0.170    1.710e-05    2.254e-04    2.170e-05
-0.190    1.920e-05    2.781e-04    2.430e-05
-0.210    2.120e-05    3.393e-04    2.690e-05
-0.230    2.330e-05    4.101e-04    2.950e-05
-0.250    2.540e-05    4.923e-04    3.220e-05
-0.260    2.650e-05    5.384e-04    3.350e-05
-0.270    2.760e-05    5.885e-04    3.480e-05
-0.280    2.870e-05    6.432e-04    3.620e-05
-0.290    2.980e-05    7.031e-04    3.750e-05
-0.300    3.090e-05    3.340e-05    3.880e-05
-0.330    3.430e-05    4.470e-05    4.290e-05
-0.360    3.800e-05    6.210e-05    4.710e-05
-0.390    4.230e-05    8.860e-05    5.150e-05
-0.410    4.590e-05    1.128e-04    5.470e-05
-0.430    5.030e-05    1.432e-04    5.830e-05
-0.450    5.610e-05    1.806e-04    6.260e-05
-0.470    6.410e-05    2.254e-04    6.820e-05
-0.490    7.550e-05    2.781e-04    7.580e-05
-0.510    9.160e-05    3.393e-04    8.690e-05
-0.530    1.144e-04    4.101e-04    1.036e-04
-0.550    1.459e-04    4.923e-04    1.289e-04
-0.560    1.656e-04    5.384e-04    1.460e-04
-0.570    1.884e-04    5.885e-04    1.668e-04
-0.580    2.143e-04    6.432e-04    1.920e-04
-0.590    2.439e-04    7.031e-04    2.221e-04
-0.600    2.772e-04    7.691e-04    2.578e-04
-0.610    3.146e-04    8.424e-04    2.996e-04
-0.620    3.564e-04    9.241e-04    3.479e-04
-0.630    4.029e-04    1.016e-03    4.033e-04
-0.640    4.545e-04    1.120e-03    4.660e-04
-0.650    5.114e-04    1.240e-03    5.362e-04
-0.660    5.743e-04    1.377e-03    6.141e-04
-0.670    6.436e-04    1.538e-03    6.997e-04
-0.680    7.200e-04    1.725e-03    7.931e-04
-0.690    8.043e-04    1.945e-03    8.943e-04
-0.700    8.973e-04    2.202e-03    1.003e-03
-0.710    1.000e-03    2.502e-03    1.120e-03
-0.720    1.115e-03    2.849e-03    1.245e-03
-0.730    1.243e-03    3.248e-03    1.378e-03
-0.740    1.387e-03    3.699e-03    1.520e-03
-0.750    1.551e-03    4.203e-03    1.672e-03
-0.760    1.740e-03    4.760e-03    1.834e-03
-0.770    1.960e-03    5.368e-03    2.010e-03
-0.780    2.218e-03    6.023e-03    2.201e-03
-0.800    2.889e-03    7.465e-03    2.649e-03
-0.820    3.828e-03    9.057e-03    3.234e-03
-0.840    5.091e-03    1.077e-02    4.047e-03
-0.860    6.684e-03    1.259e-02    5.200e-03
-0.880    8.573e-03    1.450e-02    6.777e-03
-0.900    1.071e-02    1.647e-02    8.791e-03
-0.920    1.303e-02    1.850e-02    1.119e-02
-0.950    1.680e-02    2.164e-02    1.533e-02
-0.980    2.081e-02    2.486e-02    1.995e-02
-1.020    2.641e-02    2.927e-02    2.657e-02
-1.080    3.520e-02    3.606e-02    3.713e-02
-1.160    4.734e-02    4.537e-02    5.184e-02
-1.270    6.452e-02    5.851e-02    7.271e-02
-1.430    9.006e-02    7.811e-02    1.037e-01
-1.610    1.192e-01    1.007e-01    1.389e-01
-1.810    1.520e-01    1.262e-01    1.782e-01
-2.030    1.882e-01    1.547e-01    2.215e-01
-2.270    2.279e-01    1.863e-01    2.686e-01
-2.530    2.709e-01    2.209e-01    3.193e-01
-2.790    3.139e-01    2.559e-01    3.697e-01
-3.040    3.553e-01    2.899e-01    4.177e-01
-3.280    3.948e-01    3.228e-01    4.635e-01
-3.510    4.326e-01    3.545e-01    5.069e-01
-3.740    4.703e-01    3.864e-01    5.500e-01
-3.970    5.078e-01    4.184e-01    5.926e-01
-4.200    5.452e-01    4.506e-01    6.349e-01
-4.430    5.823e-01    4.829e-01    6.768e-01
-4.570    6.048e-01    5.026e-01    7.020e-01
-4.640    6.160e-01    5.124e-01    7.146e-01
-4.680    6.224e-01    5.180e-01    7.218e-01
-4.710    6.255e-01    5.222e-01    7.272e-01
-4.860    6.255e-01    5.434e-01    7.539e-01
-4.940    6.255e-01    5.546e-01    7.682e-01
-4.980    6.255e-01    5.603e-01    7.752e-01
-5.010    6.255e-01    5.631e-01    7.272e-01
-5.300    6.255e-01    5.631e-01    7.788e-01
[Rising Waveform]
R_fixture = 50.0000
V_fixture = 0.0000
V_fixture_min = 0.0000
V_fixture_max = 0.0000
|Time         Typ(v)       Min(v)       Max(v)
0.0000n        0.0005     0.0004      0.0006
0.0100n        0.0011     0.0011      0.0011
0.0200n        0.0001     0.0011      -0.0008
0.0300n        -0.0029     -0.0013      -0.0060
0.0500n        -0.0170     -0.0119      -0.0233
0.0700n        -0.0370     -0.0290      -0.0475
0.0800n        -0.0499     -0.0397      -0.0631
0.0900n        -0.0648     -0.0516      -0.0831
0.1000n        -0.0833     -0.0692      -0.1184
0.1200n        -0.1216     -0.0880      -0.1860
0.1300n        -0.1443     -0.0980      -0.2183
0.1400n        -0.1678     -0.1088      -0.2366
0.1500n        -0.2034     -0.1217      -0.2356
0.1600n        -0.2219     -0.1360      -0.2087
0.1700n        -0.2106     -0.1507      -0.1810
0.1800n        -0.1834     -0.1658      -0.1532
0.1900n        -0.1641     -0.1749      -0.1203
0.2000n        -0.1455     -0.1795      -0.0978
0.2100n        -0.1228     -0.1708      -0.0850
0.2200n        -0.1009     -0.1519      -0.0848
0.2300n        -0.0839     -0.1351      -0.0850
0.2400n        -0.0679     -0.1199      -0.0882
0.2500n        -0.0590     -0.1054      -0.0912
0.2600n        -0.0514     -0.0915      -0.0916
0.2700n        -0.0520     -0.0778      -0.0914
0.2800n        -0.0532     -0.0643      -0.0863
0.3000n        -0.0627     -0.0453      -0.0779
0.3200n        -0.0719     -0.0332      -0.0681
0.3300n        -0.0732     -0.0292      -0.0615
0.3400n        -0.0738     -0.0258      -0.0502
0.3500n        -0.0702     -0.0251      -0.0382
0.3600n        -0.0669     -0.0253      -0.0204
0.3700n        -0.0651     -0.0280      -0.0020
0.3800n        -0.0632     -0.0315      0.0223
0.4000n        -0.0595     -0.0403      0.0780
0.4200n        -0.0513     -0.0485      0.1463
0.4400n        -0.0358     -0.0548      0.2264
0.4600n        -0.0112     -0.0558      0.3176
0.4700n        0.0054     -0.0538      0.3662
0.4900n        0.0440     -0.0495      0.4724
0.5100n        0.0916     -0.0473      0.5873
0.5300n        0.1478     -0.0457      0.7099
0.5500n        0.2121     -0.0433      0.8389
0.5700n        0.2839     -0.0383      0.9732
0.5900n        0.3622     -0.0291      1.1114
0.6100n        0.4464     -0.0150      1.2525
0.6300n        0.5356     0.0043      1.3947
0.6500n        0.6291     0.0288      1.5358
0.6700n        0.7260     0.0582      1.6722
0.6900n        0.8254     0.0923      1.7849
0.7100n        0.9261     0.1307      1.8791
0.7300n        1.0266     0.1729      1.9637
0.7500n        1.1256     0.2187      2.0400
0.7700n        1.2217     0.2677      2.1082
0.7900n        1.3139     0.3195      2.1682
0.8100n        1.4000     0.3737      2.2206
0.8300n        1.4747     0.4297      2.2662
0.8500n        1.5383     0.4872      2.3060
0.8700n        1.5952     0.5454      2.3409
0.8900n        1.6472     0.6038      2.3717
0.9200n        1.7176     0.6906      2.4111
0.9500n        1.7784     0.7748      2.4447
0.9800n        1.8317     0.8555      2.4729
1.0100n        1.8772     0.9311      2.4974
1.0400n        1.9169     1.0018      2.5183
1.0700n        1.9509     1.0665      2.5368
1.1000n        1.9809     1.1259      2.5528
1.1300n        2.0069     1.1787      2.5671
1.1600n        2.0301     1.2237      2.5796
1.1900n        2.0505     1.2625      2.5910
1.2200n        2.0688     1.2973      2.6011
1.2600n        2.0903     1.3384      2.6132
1.3000n        2.1090     1.3745      2.6238
1.3400n        2.1254     1.4063      2.6332
1.3800n        2.1400     1.4345      2.6415
1.4300n        2.1559     1.4655      2.6507
1.4800n        2.1698     1.4926      2.6587
1.5400n        2.1842     1.5209      2.6670
1.6000n        2.1966     1.5453      2.6741
1.6700n        2.2090     1.5699      2.6811
1.7400n        2.2194     1.5911      2.6869
1.8200n        2.2295     1.6118      2.6925
1.9100n        2.2387     1.6315      2.6976
2.0100n        2.2471     1.6499      2.7022
2.1200n        2.2544     1.6664      2.7063
2.2400n        2.2607     1.6810      2.7098
2.3800n        2.2665     1.6945      2.7130
2.5500n        2.2718     1.7069      2.7159
2.7600n        2.2766     1.7182      2.7183
3.0200n        2.2805     1.7280      2.7203
3.3500n        2.2835     1.7362      2.7217
3.7900n        2.2856     1.7427      2.7226
4.4900n        2.2870     1.7476      2.7231
7.1800n        2.2876     1.7507      2.7233
24.9900n        2.2876     1.7507      2.7233
|
[Rising Waveform]
R_fixture = 50.0000
V_fixture = 3.3000
V_fixture_min = 3.0000
V_fixture_max = 3.6000
|Time         Typ(v)       Min(v)       Max(v)
0.0000n        0.4008     0.5020      0.3593
0.0100n        0.4013     0.5026      0.3597
0.0200n        0.4004     0.5023      0.3579
0.0300n        0.3980     0.5003      0.3544
0.0400n        0.3957     0.4986      0.3522
0.0500n        0.3958     0.4971      0.3539
0.0600n        0.4007     0.4996      0.3619
0.0700n        0.4124     0.5048      0.3817
0.0800n        0.4368     0.5198      0.4239
0.0900n        0.4786     0.5415      0.5090
0.1000n        0.5528     0.5891      0.7487
0.1100n        0.7017     0.6517      1.0345
0.1200n        0.9237     0.7624      1.3027
0.1300n        1.1691     0.9105      1.5500
0.1400n        1.3946     1.0804      1.7421
0.1500n        1.5806     1.2499      1.8950
0.1600n        1.7373     1.4191      2.0195
0.1700n        1.8729     1.5670      2.1256
0.1800n        1.9870     1.6990      2.2245
0.1900n        2.0766     1.8081      2.3077
0.2000n        2.1504     1.9000      2.3757
0.2100n        2.2075     1.9805      2.4267
0.2200n        2.2595     2.0525      2.4592
0.2300n        2.3051     2.1106      2.4867
0.2400n        2.3453     2.1639      2.5102
0.2500n        2.3790     2.2032      2.5326
0.2600n        2.4068     2.2387      2.5540
0.2700n        2.4274     2.2664      2.5747
0.2800n        2.4449     2.2923      2.5948
0.2900n        2.4585     2.3148      2.6145
0.3000n        2.4712     2.3359      2.6339
0.3200n        2.4941     2.3713      2.6826
0.3300n        2.5055     2.3863      2.7056
0.3400n        2.5169     2.3999      2.7264
0.3500n        2.5285     2.4108      2.7463
0.3600n        2.5399     2.4203      2.7656
0.3700n        2.5513     2.4267      2.7860
0.3800n        2.5654     2.4324      2.8073
0.3900n        2.5829     2.4366      2.8309
0.4000n        2.5991     2.4407      2.8562
0.4200n        2.6269     2.4488      2.9142
0.4400n        2.6509     2.4579      2.9691
0.4600n        2.6750     2.4681      3.0138
0.4700n        2.6882     2.4735      3.0359
0.4900n        2.7190     2.4844      3.0820
0.5000n        2.7344     2.4909      3.1057
0.5100n        2.7487     2.4991      3.1290