|***********************************************************************
|
|           IBIS Models For APEX20K Device By ALTERA
|
|***********************************************************************
|
[IBIS Ver]  2.1
[File Name] apex20k.ibs
[File Rev]  1.4
|1.0 - Initial
|1.3 - RCL pin & package values were updated
|    - RCL values are for 484 FBGA, with dedicated clk or I/O pin added
|    - COMMETNS were added
|    - Input models were added
|1.4 - Tab characters were removed
[Date]      June 2004
[Source]    Viewlogic Consulting Services
|
[Notes]
|
QA using ibis2xtk -pv .0001 -vt .00001

Package model  is a dummy model. Actual package pinout model must
be created by the user for any specific programmed pinout.

COMMENTS:
All models in TYP, MIN, and MAX corners.

Model Conditions:
TYP:          2.5V   and 3.3V   TEMP=25C   Process = TT
MIN: (slow)   2.25V  and 3.0V   TEMP=85C   process = SS
MAX: (fast)   2.75V  and 3.6V   TEMP=0C    process = FF

Models extracted from SPICE simulations Altera SPICE models.
Model Generated Using VML Editor - V2.21
|
|
[Disclaimer]  Data is for modeling purposes only and is not guaranteed
|
[Copyright]   Copyright 1999, Altera Corporation.  All rights reserved.
[Component]     APEX20k
[Manufacturer]  Altera
[Package]
|
|RCL values are for 484 FBGA pacakge.
|
| variable       typ        min       max
R_pkg            460.00m    NA        NA
L_pkg            10.00nH    NA        NA
C_pkg            1.00pF     NA        NA
|           
|
[Pin] signal_name    model_name                       R_pin   L_pin    C_pin
1      20k_2       20k_2                             460.00m  10.00nH  1.00pF
2      20k_2_s        20k_2_s                        460.00m  10.00nH  1.00pF
3      20k_2_p        20k_2_p                        460.00m  10.00nH  1.00pF
4      20k_2_sp       20k_2_sp                       460.00m  10.00nH  1.00pF
5      20k_3          20k_3                          460.00m  10.00nH  1.00pF
6      20k_3_s        20k_3_s                        460.00m  10.00nH  1.00pF
7      20k_3_p        20k_3_p                        460.00m  10.00nH  1.00pF
8      20k_3_sp       20k_3_sp                       460.00m  10.00nH  1.00pF
9      20k_2_in       20k_2_in                       460.00m  10.00nH  1.00pF
10     20k_3_in       20k_3_in                       460.00m  10.00nH  1.00pF
|
[Model]     20k_3_sp
Model_type   I/O
|
Vinl = 0.8000
Vinh = 2.0000
Vmeas = 1.5000
Cref = 3.50e-11
Rref = 1.00e+07
Vref = 0.00e+00
C_comp      7.00pF   NA      NA
|
|
[Temperature Range]   25.0000            85.0000           0.0000
[Voltage Range]        3.3000           3.0000              3.6000
[Pulldown]
| voltage            I(typ)        I(min)          I(max)
-5.000              -6.462e-02      -8.163e-02      -3.111e-02
-3.000              -6.462e-02      -8.163e-02      -3.111e-02
-2.000              -6.462e-02      -8.163e-02      -3.111e-02
-1.490              -6.462e-02      -8.163e-02      -3.111e-02
-1.230              -6.462e-02      -8.163e-02      -3.111e-02
-1.100              -6.462e-02      -8.163e-02      -3.111e-02
-1.030              -6.462e-02      -8.163e-02      -3.111e-02
-0.990              -1.664e-01      -1.274e-01      -1.911e-01
-0.900              -1.572e-01      -1.199e-01      -1.812e-01
-0.850              -1.517e-01      -1.153e-01      -1.752e-01
-0.800              -1.458e-01      -1.105e-01      -1.687e-01
-0.750              -1.395e-01      -1.054e-01      -1.619e-01
-0.700              -1.327e-01      -1.000e-01      -1.545e-01
-0.660              -1.271e-01      -9.546e-02      -1.483e-01
-0.620              -1.211e-01      -9.064e-02      -1.417e-01
-0.580              -1.147e-01      -8.557e-02      -1.348e-01
-0.540              -1.080e-01      -8.024e-02      -1.275e-01
-0.500              -1.009e-01      -7.468e-02      -1.198e-01
-0.460              -9.349e-02      -6.899e-02      -1.116e-01
-0.420              -8.580e-02      -6.316e-02      -1.029e-01
-0.370              -7.596e-02      -5.576e-02      -9.142e-02
-0.300              -6.192e-02      -4.529e-02      -7.476e-02
-0.210              -4.358e-02      -3.172e-02      -5.278e-02
-0.110              -2.293e-02      -1.659e-02      -2.787e-02
-0.010              -2.090e-03      -1.502e-03      -2.550e-03
0.030               6.193e-03       4.447e-03       7.565e-03
0.080               1.617e-02       1.161e-02       1.978e-02
0.130               2.573e-02       1.847e-02       3.150e-02
0.180               3.486e-02       2.502e-02       4.274e-02
0.230               4.358e-02       3.127e-02       5.350e-02
0.280               5.189e-02       3.722e-02       6.378e-02
0.330               5.980e-02       4.288e-02       7.359e-02
0.380               6.730e-02       4.825e-02       8.292e-02
0.430               7.440e-02       5.332e-02       9.180e-02
0.480               8.110e-02       5.811e-02       1.002e-01
0.530               8.742e-02       6.262e-02       1.082e-01
0.580               9.334e-02       6.685e-02       1.156e-01
0.630               9.889e-02       7.079e-02       1.227e-01
0.680               1.041e-01       7.447e-02       1.293e-01
0.730               1.088e-01       7.787e-02       1.354e-01
0.780               1.132e-01       8.100e-02       1.411e-01
0.830               1.173e-01       8.386e-02       1.464e-01
0.880               1.210e-01       8.646e-02       1.512e-01
0.930               1.243e-01       8.880e-02       1.555e-01
0.980               1.272e-01       9.089e-02       1.594e-01
1.020               1.293e-01       9.237e-02       1.622e-01
1.060               1.311e-01       9.369e-02       1.647e-01
1.100               1.327e-01       9.486e-02       1.668e-01
1.150               1.343e-01       9.611e-02       1.691e-01
1.200               1.357e-01       9.716e-02       1.708e-01
1.260               1.370e-01       9.818e-02       1.725e-01
1.330               1.381e-01       9.910e-02       1.740e-01
1.420               1.392e-01       1.000e-01       1.753e-01
1.550               1.402e-01       1.010e-01       1.766e-01
1.740               1.413e-01       1.019e-01       1.779e-01
2.040               1.424e-01       1.028e-01       1.791e-01
2.660               1.437e-01       1.040e-01       1.807e-01
3.100               1.444e-01       1.046e-01       1.816e-01
3.340               1.448e-01       1.049e-01       1.821e-01
3.510               1.452e-01       1.051e-01       1.827e-01
3.640               1.455e-01       1.053e-01       1.834e-01
3.750               1.460e-01       1.055e-01       1.843e-01
3.840               1.465e-01       1.057e-01       1.853e-01
3.920               1.471e-01       1.059e-01       1.866e-01
3.990               1.478e-01       1.062e-01       1.880e-01
4.330               1.544e-01       1.089e-01       2.014e-01
4.590               1.660e-01       1.136e-01       2.243e-01
4.810               1.835e-01       1.212e-01       2.581e-01
5.010               2.086e-01       1.323e-01       3.053e-01
5.190               2.413e-01       1.471e-01       3.654e-01
5.360               2.832e-01       1.666e-01       4.414e-01
5.520               3.348e-01       1.912e-01       5.335e-01
5.670               3.958e-01       2.207e-01       6.408e-01
5.820               4.710e-01       2.578e-01       7.713e-01
5.970               5.622e-01       3.035e-01       9.278e-01
6.120               6.717e-01       3.591e-01       1.113e+00
6.270               8.013e-01       4.261e-01       1.331e+00
6.420               9.533e-01       5.056e-01       1.582e+00
6.580               1.142e+00       6.059e-01       1.892e+00
6.740               1.362e+00       7.237e-01       2.247e+00
6.910               1.630e+00       8.702e-01       2.677e+00
7.080               1.938e+00       1.040e+00       3.165e+00
7.250               2.289e+00       1.236e+00       3.714e+00
7.430               2.708e+00       1.474e+00       4.364e+00
7.610               3.180e+00       1.745e+00       5.087e+00
7.780               3.677e+00       2.033e+00       5.840e+00
7.870               3.960e+00       2.199e+00       6.266e+00
7.950               4.224e+00       2.354e+00       6.661e+00
7.990               4.360e+00       2.455e+00       6.865e+00
8.130               4.860e+00       2.455e+00       7.607e+00
8.230               5.239e+00       2.455e+00       8.167e+00
8.280               5.516e+00       2.455e+00       8.457e+00
8.600               5.516e+00       2.455e+00       1.045e+01
|
[Pullup]
| voltage            I(typ)        I(min)          I(max)
8.300              -2.773e-01      -1.435e-01      -4.861e-01
6.450              -2.773e-01      -1.435e-01      -4.861e-01
5.520              -2.773e-01      -1.435e-01      -4.861e-01
5.050              -2.773e-01      -1.435e-01      -4.861e-01
4.810              -2.773e-01      -1.435e-01      -4.861e-01
4.690              -2.773e-01      -1.435e-01      -4.861e-01
4.620              -2.773e-01      -1.435e-01      -4.861e-01
4.580              -2.773e-01      -1.435e-01      -1.503e-01
4.440              -2.773e-01      -1.435e-01      -1.499e-01
4.370              -2.773e-01      -1.435e-01      -1.497e-01
4.330              -2.773e-01      -1.435e-01      -1.495e-01
4.300              -1.033e-01      -1.435e-01      -1.495e-01
4.150              -1.030e-01      -1.435e-01      -1.491e-01
4.070              -1.029e-01      -1.435e-01      -1.489e-01
4.030              -1.028e-01      -1.435e-01      -1.488e-01
4.000              -1.028e-01      -6.330e-02      -1.487e-01
3.800              -1.025e-01      -6.309e-02      -1.482e-01
3.700              -1.023e-01      -6.298e-02      -1.479e-01
3.640              -1.022e-01      -6.292e-02      -1.477e-01
3.610              -1.021e-01      -6.289e-02      -1.476e-01
3.590              -1.021e-01      -6.287e-02      -1.471e-01
3.350              -1.016e-01      -6.261e-02      -1.462e-01
3.100              -1.009e-01      -6.226e-02      -1.452e-01
2.900              -1.004e-01      -6.196e-02      -1.442e-01
2.730              -9.980e-02      -6.167e-02      -1.432e-01
2.580              -9.923e-02      -6.138e-02      -1.421e-01
2.450              -9.868e-02      -6.110e-02      -1.411e-01
2.340              -9.814e-02      -6.084e-02      -1.400e-01
2.240              -9.760e-02      -6.058e-02      -1.389e-01
2.150              -9.706e-02      -6.033e-02      -1.378e-01
2.070              -9.651e-02      -6.008e-02      -1.365e-01
2.000              -9.597e-02      -5.985e-02      -1.353e-01
1.930              -9.535e-02      -5.960e-02      -1.339e-01
1.860              -9.464e-02      -5.931e-02      -1.323e-01
1.800              -9.392e-02      -5.905e-02      -1.307e-01
1.740              -9.311e-02      -5.874e-02      -1.290e-01
1.680              -9.216e-02      -5.839e-02      -1.271e-01
1.620              -9.108e-02      -5.798e-02      -1.250e-01
1.560              -8.985e-02      -5.748e-02      -1.227e-01
1.500              -8.847e-02      -5.690e-02      -1.203e-01
1.440              -8.694e-02      -5.621e-02      -1.177e-01
1.380              -8.524e-02      -5.540e-02      -1.149e-01
1.320              -8.339e-02      -5.447e-02      -1.119e-01
1.260              -8.137e-02      -5.341e-02      -1.088e-01
1.200              -7.918e-02      -5.223e-02      -1.055e-01
1.140              -7.684e-02      -5.091e-02      -1.020e-01
1.080              -7.432e-02      -4.946e-02      -9.826e-02
1.020              -7.164e-02      -4.788e-02      -9.438e-02
0.960              -6.880e-02      -4.617e-02      -9.032e-02
0.900              -6.578e-02      -4.432e-02      -8.608e-02
0.840              -6.260e-02      -4.233e-02      -8.165e-02
0.780              -5.924e-02      -4.021e-02      -7.703e-02
0.720              -5.572e-02      -3.795e-02      -7.223e-02
0.660              -5.203e-02      -3.556e-02      -6.724e-02
0.600              -4.816e-02      -3.303e-02      -6.207e-02
0.540              -4.413e-02      -3.036e-02      -5.671e-02
0.480              -3.992e-02      -2.755e-02      -5.116e-02
0.420              -3.554e-02      -2.460e-02      -4.543e-02
0.360              -3.099e-02      -2.151e-02      -3.951e-02
0.300              -2.626e-02      -1.828e-02      -3.340e-02
0.240              -2.136e-02      -1.491e-02      -2.710e-02
0.180              -1.628e-02      -1.139e-02      -2.061e-02
0.120              -1.103e-02      -7.739e-03      -1.393e-02
0.060              -5.604e-03      -3.941e-03      -7.060e-03
0.000               0.000e+00       0.000e+00       0.000e+00
-0.030               2.859e-03       2.021e-03       3.587e-03
-0.120               1.157e-02       8.241e-03       1.444e-02
-0.220               2.143e-02       1.539e-02       2.659e-02
-0.340               3.342e-02       2.421e-02       4.122e-02
-0.450               4.448e-02       3.248e-02       5.459e-02
-0.530               5.254e-02       3.853e-02       6.422e-02
-0.580               5.755e-02       4.232e-02       7.013e-02
-0.630               6.251e-02       4.612e-02       7.589e-02
-0.680               6.738e-02       4.991e-02       8.143e-02
-0.730               7.211e-02       5.368e-02       8.673e-02
-0.870               8.446e-02       6.389e-02       1.004e-01
-0.950               9.098e-02       6.945e-02       1.076e-01
-0.990               9.411e-02       7.216e-02       1.110e-01
-1.020               9.640e-02       7.417e-02       2.129e-01
-1.150               1.058e-01       8.258e-02       2.129e-01
-1.220               1.106e-01       8.695e-02       2.129e-01
-1.260               1.132e-01       8.939e-02       2.129e-01
-1.280               2.140e-01       9.060e-02       2.129e-01
-1.730               2.140e-01       1.156e-01       2.129e-01
-1.960               2.140e-01       1.270e-01       2.129e-01
-2.080               2.140e-01       1.325e-01       2.129e-01
-2.140               2.140e-01       1.352e-01       2.129e-01
-2.180               2.140e-01       2.369e-01       2.129e-01
-5.300               2.140e-01       2.369e-01       2.129e-01
|
[Ramp]
dV/dt_r   1.5786/2.0500n   1.2864/3.7400n   1.8118/1.4000n
dV/dt_f   1.7837/4.9500n   1.5518/7.5200n   1.9852/3.3900n
|
|
|
[GND_Clamp]
|Voltage   I(typ)       I(min)       I(max)
-5.000   -3.487e-01   -4.617e-01   -4.547e-01
-4.950   -3.372e-01   -4.530e-01   -4.362e-01
-4.900   -3.267e-01   -4.448e-01   -4.192e-01
-4.850   -3.172e-01   -4.371e-01   -4.037e-01
-4.800   -3.084e-01   -4.298e-01   -3.896e-01
-4.750   -3.004e-01   -4.229e-01   -3.767e-01
-4.690   -2.917e-01   -4.151e-01   -3.627e-01
-4.630   -2.839e-01   -4.076e-01   -3.502e-01
-4.570   -2.768e-01   -4.006e-01   -3.390e-01
-4.500   -2.694e-01   -3.927e-01   -3.273e-01
-4.430   -2.627e-01   -3.852e-01   -3.171e-01
-4.350   -2.559e-01   -3.769e-01   -3.068e-01
-4.260   -2.489e-01   -3.680e-01   -2.969e-01
-4.150   -2.413e-01   -3.574e-01   -2.864e-01
-4.020   -2.330e-01   -3.451e-01   -2.758e-01
-3.810   -2.208e-01   -3.257e-01   -2.610e-01
-3.450   -2.002e-01   -2.919e-01   -2.380e-01
-3.180   -1.840e-01   -2.658e-01   -2.204e-01
-2.930   -1.680e-01   -2.410e-01   -2.029e-01
-2.680   -1.510e-01   -2.155e-01   -1.841e-01
-2.430   -1.330e-01   -1.894e-01   -1.641e-01
-2.160   -1.126e-01   -1.606e-01   -1.410e-01
-1.790   -8.339e-02   -1.209e-01   -1.074e-01
-1.480   -5.866e-02   -8.781e-02   -7.813e-02
-1.250   -4.087e-02   -6.405e-02   -5.653e-02
-1.070   -2.785e-02   -4.634e-02   -4.026e-02
-0.940   -1.928e-02   -3.424e-02   -2.923e-02
-0.870   -1.505e-02   -2.804e-02   -2.366e-02
-0.830   -1.279e-02   -2.461e-02   -2.063e-02
-0.800   -1.117e-02   -2.211e-02   -1.844e-02
-0.780   -1.013e-02   -2.047e-02   -1.702e-02
-0.760   -9.129e-03   -1.886e-02   -1.563e-02
-0.740   -8.163e-03   -1.728e-02   -1.429e-02
-0.720   -7.235e-03   -1.574e-02   -1.298e-02
-0.700   -6.349e-03   -1.423e-02   -1.172e-02
-0.680   -5.508e-03   -1.276e-02   -1.050e-02
-0.660   -4.715e-03   -1.134e-02   -9.322e-03
-0.650   -4.338e-03   -1.064e-02   -8.755e-03
-0.640   -3.974e-03   -9.961e-03   -8.200e-03
-0.630   -3.625e-03   -9.289e-03   -7.659e-03
-0.620   -3.290e-03   -8.631e-03   -7.132e-03
-0.610   -2.970e-03   -7.985e-03   -6.620e-03
-0.600   -2.666e-03   -7.352e-03   -6.122e-03
-0.590   -2.379e-03   -6.732e-03   -5.640e-03
-0.580   -2.109e-03   -6.125e-03   -5.175e-03
-0.570   -1.857e-03   -5.531e-03   -4.726e-03
-0.560   -1.622e-03   -4.949e-03   -4.295e-03
-0.550   -1.406e-03   -4.379e-03   -3.883e-03
-0.540   -1.208e-03   -3.821e-03   -3.490e-03
-0.530   -1.029e-03   -3.273e-03   -3.117e-03
-0.520   -8.686e-04   -2.736e-03   -2.765e-03
-0.510   -7.258e-04   -2.208e-03   -2.434e-03
-0.500   -6.002e-04   -1.689e-03   -2.126e-03
-0.490   -4.915e-04   -1.246e-03   -1.841e-03
-0.480   -3.991e-04   -9.200e-04   -1.579e-03
-0.470   -3.213e-04   -6.804e-04   -1.342e-03
-0.460   -2.566e-04   -5.040e-04   -1.129e-03
-0.450   -2.033e-04   -3.738e-04   -9.390e-04
-0.440   -1.600e-04   -2.776e-04   -7.726e-04
-0.430   -1.251e-04   -2.065e-04   -6.285e-04
-0.420   -9.730e-05   -1.539e-04   -5.055e-04
-0.410   -7.520e-05   -1.148e-04   -4.020e-04
-0.400   -5.790e-05   -8.580e-05   -3.162e-04
-0.390   -4.440e-05   -6.420e-05   -2.462e-04
-0.370   -2.580e-05   -3.610e-05   -1.452e-04
-0.350   -1.470e-05   -2.030e-05   -8.290e-05
-0.320   -6.200e-06   -8.700e-06   -3.410e-05
-0.260   -1.000e-06   -1.600e-06   -5.000e-06
-0.170   -0.000e+00   -1.000e-07   -2.000e-07
-0.120   -0.000e+00   -0.000e+00   -0.000e+00
 1.460    0.000e+00    0.000e+00    0.000e+00
 2.260    0.000e+00    0.000e+00    0.000e+00
 2.670    0.000e+00    0.000e+00    0.000e+00
 2.880    0.000e+00    0.000e+00    0.000e+00
 2.990    0.000e+00    0.000e+00    0.000e+00
 3.050    0.000e+00    0.000e+00    0.000e+00
 3.080    0.000e+00    1.000e-07    0.000e+00
 3.210    0.000e+00    1.700e-06    0.000e+00
 3.290    0.000e+00    9.300e-06    0.000e+00
 3.340    0.000e+00    2.580e-05    0.000e+00
 3.380    0.000e+00    5.680e-05    0.000e+00
 3.410    0.000e+00    1.030e-04    0.000e+00
 3.430    0.000e+00    1.549e-04    0.000e+00
 3.450    0.000e+00    2.364e-04    0.000e+00
 3.460    0.000e+00    2.937e-04    0.000e+00
 3.470    0.000e+00    3.664e-04    0.000e+00
 3.480    0.000e+00    4.583e-04    0.000e+00
 3.490    0.000e+00    5.741e-04    0.000e+00
 3.500    0.000e+00    7.192e-04    0.000e+00
 3.540    0.000e+00    1.467e-03    0.000e+00
|
[POWER_Clamp]
|Voltage   I(typ)       I(min)       I(max)
 3.470   -0.000e+00   -1.000e-07    0.000e+00
 3.440   -0.000e+00   -0.000e+00    0.000e+00
 3.310   -0.000e+00   -0.000e+00    0.000e+00
 3.250   -0.000e+00    0.000e+00    0.000e+00
 3.210   -0.000e+00    0.000e+00    0.000e+00
 1.580    0.000e+00    0.000e+00    0.000e+00
 0.760    0.000e+00    0.000e+00    0.000e+00
 0.340    0.000e+00    0.000e+00    0.000e+00
 0.130    0.000e+00    0.000e+00    0.000e+00
 0.020    0.000e+00    0.000e+00    0.000e+00
-0.040    0.000e+00    0.000e+00    0.000e+00
-0.080    0.000e+00    1.000e-07    0.000e+00
-0.160    0.000e+00    6.000e-07    0.000e+00
-0.210    0.000e+00    1.700e-06    0.000e+00
-0.240    0.000e+00    3.300e-06    0.000e+00
-0.260    1.000e-07    5.000e-06    0.000e+00
-0.280    1.000e-07    7.600e-06    0.000e+00
-0.300    2.000e-07    1.150e-05    0.000e+00
-0.310    3.000e-07    1.410e-05    1.000e-07
-0.340    6.000e-07    2.580e-05    2.000e-07
-0.360    1.000e-06    3.830e-05    3.000e-07
-0.380    1.600e-06    5.680e-05    6.000e-07
-0.400    2.700e-06    8.430e-05    1.100e-06
-0.410    3.500e-06    1.030e-04    1.500e-06
-0.420    4.500e-06    1.261e-04    2.000e-06
-0.430    5.900e-06    1.549e-04    2.800e-06
-0.440    7.600e-06    1.909e-04    3.800e-06
-0.450    9.700e-06    2.364e-04    5.200e-06
-0.460    1.250e-05    2.937e-04    7.000e-06
-0.470    1.600e-05    3.664e-04    9.400e-06
-0.480    2.040e-05    4.583e-04    1.260e-05
-0.490    2.600e-05    5.741e-04    1.670e-05
-0.500    3.310e-05    7.192e-04    2.220e-05
-0.510    4.160e-05    8.974e-04    2.930e-05
-0.530    6.310e-05    1.276e-03    4.990e-05
-0.550    9.170e-05    1.659e-03    8.300e-05
-0.560    1.092e-04    1.853e-03    1.058e-04
-0.570    1.291e-04    2.046e-03    1.339e-04
-0.580    1.518e-04    2.241e-03    1.680e-04
-0.590    1.775e-04    2.436e-03    2.089e-04
-0.600    2.065e-04    2.632e-03    2.573e-04
-0.610    2.391e-04    2.829e-03    3.139e-04
-0.620    2.757e-04    3.027e-03    3.793e-04
-0.630    3.167e-04    3.226e-03    4.539e-04
-0.640    3.624e-04    3.426e-03    5.381e-04
-0.650    4.132e-04    3.627e-03    6.321e-04
-0.660    4.696e-04    3.830e-03    7.362e-04
-0.670    5.318e-04    4.034e-03    8.502e-04
-0.680    6.002e-04    4.240e-03    9.742e-04
-0.690    6.750e-04    4.447e-03    1.108e-03
-0.700    7.565e-04    4.657e-03    1.252e-03
-0.710    8.449e-04    4.868e-03    1.405e-03
-0.720    9.402e-04    5.082e-03    1.567e-03
-0.730    1.043e-03    5.298e-03    1.739e-03
-0.740    1.152e-03    5.517e-03    1.919e-03
-0.750    1.268e-03    5.738e-03    2.108e-03
-0.760    1.392e-03    5.962e-03    2.305e-03
-0.770    1.522e-03    6.190e-03    2.510e-03
-0.780    1.659e-03    6.420e-03    2.723e-03
-0.860    2.986e-03    8.382e-03    4.688e-03
-0.950    4.902e-03    1.085e-02    7.379e-03
-1.040    7.192e-03    1.356e-02    1.050e-02
-1.140    1.011e-02    1.682e-02    1.441e-02
-1.250    1.373e-02    2.067e-02    1.915e-02
-1.370    1.810e-02    2.513e-02    2.480e-02
-1.500    2.326e-02    3.026e-02    3.137e-02
-1.640    2.924e-02    3.609e-02    3.887e-02
-1.800    3.653e-02    4.310e-02    4.789e-02
-1.980    4.522e-02    5.138e-02    5.847e-02
-2.180    5.535e-02    6.101e-02    7.060e-02
-2.400    6.693e-02    7.207e-02    8.423e-02
-2.630    7.941e-02    8.407e-02    9.865e-02
-2.880    9.327e-02    9.755e-02    1.144e-01
-3.150    1.085e-01    1.126e-01    1.313e-01
-3.440    1.249e-01    1.291e-01    1.492e-01
-3.740    1.420e-01    1.467e-01    1.674e-01
-4.050    1.597e-01    1.652e-01    1.860e-01
-4.350    1.769e-01    1.835e-01    2.037e-01
-4.630    1.931e-01    2.010e-01    2.202e-01
-4.820    2.041e-01    2.131e-01    2.314e-01
-4.920    2.100e-01    2.196e-01    2.373e-01
-4.970    2.129e-01    2.228e-01    2.402e-01
-5.000    2.147e-01    2.248e-01    2.420e-01
-5.020    2.147e-01    2.248e-01    2.255e-01
-5.300    2.147e-01    2.248e-01    2.420e-01
[Rising Waveform]
R_fixture = 50.0000
V_fixture = 0.0000
V_fixture_min = 0.0000
V_fixture_max = 0.0000
|Time         Typ(v)       Min(v)       Max(v)
0.0000n        0.0000     0.0000      0.0000
0.0100n        0.0004     0.0005      0.0004
0.0300n        -0.0031     -0.0013      -0.0059
0.0600n        -0.0242     -0.0173      -0.0324
0.1000n        -0.0678     -0.0553      -0.0805
0.1400n        -0.1041     -0.0828      -0.1219
0.1600n        -0.1231     -0.0954      -0.1523
0.1800n        -0.1459     -0.1081      -0.1443
0.1900n        -0.1493     -0.1143      -0.1378
0.2100n        -0.1348     -0.1258      -0.1376
0.2300n        -0.1244     -0.1386      -0.1183
0.2500n        -0.1220     -0.1313      -0.0955
0.2800n        -0.0996     -0.1120      -0.0680
0.3200n        -0.0687     -0.0991      -0.0461
0.3600n        -0.0468     -0.0811      -0.0324
0.4000n        -0.0336     -0.0603      -0.0181
0.4400n        -0.0254     -0.0435      0.0063
0.5000n        -0.0162     -0.0267      0.0625
0.5500n        -0.0036     -0.0192      0.1161
0.5800n        0.0081     -0.0163      0.1466
0.6300n        0.0331     -0.0128      0.1908
0.6900n        0.0684     -0.0097      0.2313
0.7500n        0.1030     -0.0053      0.2600
0.8000n        0.1281     0.0011      0.2770
0.8800n        0.1592     0.0166      0.2958
0.9700n        0.1825     0.0393      0.3091
1.1000n        0.2019     0.0720      0.3211
1.2300n        0.2123     0.0965      0.3339
1.3300n        0.2173     0.1093      0.3448
1.4100n        0.2202     0.1165      0.3602
1.4900n        0.2226     0.1217      0.3845
1.5700n        0.2265     0.1255      0.4188
1.6500n        0.2290     0.1283      0.4630
1.7400n        0.2314     0.1307      0.5239
1.8400n        0.2348     0.1326      0.6045
1.9400n        0.2410     0.1340      0.6978
2.0500n        0.2536     0.1351      0.8138
2.1600n        0.2743     0.1360      0.9426
2.2800n        0.3065     0.1367      1.0956
2.4000n        0.3484     0.1387      1.2594
2.5300n        0.4040     0.1399      1.4459
2.6700n        0.4749     0.1408      1.6528
2.8200n        0.5627     0.1419      1.8745
2.9700n        0.6613     0.1441      2.0886
3.0800n        0.7397     0.1472      2.2364
3.1500n        0.7920     0.1500      2.3245
3.2200n        0.8459     0.1537      2.3982
3.3000n        0.9094     0.1590      2.4660
3.3900n        0.9827     0.1667      2.5285
3.4900n        1.0662     0.1771      2.5851
3.6100n        1.1684     0.1925      2.6398
3.7500n        1.2896     0.2141      2.6909
3.9100n        1.4288     0.2434      2.7374
4.1000n        1.5923     0.2842      2.7812
4.3100n        1.7662     0.3361      2.8193
4.4700n        1.8914     0.3801      2.8431
4.5700n        1.9652     0.4093      2.8561
4.6800n        2.0343     0.4430      2.8690
4.8000n        2.0971     0.4814      2.8817
4.9300n        2.1547     0.5246      2.8939
5.0800n        2.2101     0.5766      2.9064
5.2500n        2.2618     0.6376      2.9188
5.4500n        2.3113     0.7118      2.9313
5.6900n        2.3588     0.8033      2.9441
5.9700n        2.4028     0.9119      2.9563
6.3100n        2.4444     1.0443      2.9682
6.7200n        2.4825     1.2011      2.9794
7.1100n        2.5103     1.3441      2.9876
7.4600n        2.5302     1.4643      2.9934
7.7400n        2.5433     1.5539      2.9972
7.9500n        2.5519     1.6158      2.9997
8.1900n        2.5606     1.6754      3.0022
8.4600n        2.5692     1.7318      3.0046
8.7700n        2.5776     1.7857      3.0069
9.1200n        2.5856     1.8358      3.0091
9.5300n        2.5934     1.8831      3.0112
10.0100n        2.6008     1.9270      3.0131
10.5800n        2.6076     1.9677      3.0148
11.2600n        2.6137     2.0048      3.0163
12.0900n        2.6190     2.0384      3.0174
13.1300n        2.6233     2.0683      3.0183
14.4600n        2.6267     2.0939      3.0189
16.2600n        2.6290     2.1149      3.0193
18.9500n        2.6303     2.1309      3.0195
24.9600n        2.6309     2.1417      3.0196
49.9900n        2.6310     2.1440      3.0196
|
[Rising Waveform]
R_fixture = 50.0000
V_fixture = 3.3000
V_fixture_min = 3.0000
V_fixture_max = 3.6000
|Time         Typ(v)       Min(v)       Max(v)
0.0000n        0.3272     0.4135      0.2913
0.0100n        0.3276     0.4139      0.2917
0.0200n        0.3269     0.4137      0.2901
0.0300n        0.3243     0.4122      0.2859
0.0400n        0.3201     0.4092      0.2804
0.0500n        0.3157     0.4056      0.2752
0.0600n        0.3124     0.4022      0.2719
0.0700n        0.3114     0.4001      0.2719
0.0800n        0.3140     0.4002      0.2774
0.0900n        0.3217     0.4037      0.2908
0.1000n        0.3377     0.4119      0.3169
0.1100n        0.3631     0.4248      0.3582
0.1200n        0.4048     0.4460      0.4495
0.1300n        0.4725     0.4769      0.6126
0.1400n        0.5853     0.5208      0.7954
0.1500n        0.7363     0.5837      0.9975
0.1600n        0.9029     0.6743      1.1818
0.1800n        1.2138     0.9136      1.5230
0.1900n        1.3572     1.0345      1.6837
0.2000n        1.4888     1.1538      1.8154
0.2100n        1.6148     1.2684      1.9319
0.2200n        1.7304     1.3759      2.0376
0.2300n        1.8402     1.4778      2.1326
0.2400n        1.9354     1.5743      2.2178
0.2500n        2.0096     1.6648      2.2942
0.2600n        2.0784     1.7490      2.3630
0.2700n        2.1417     1.8264      2.4280
0.2800n        2.1998     1.8968      2.4846
0.2900n        2.2529     1.9602      2.5351
0.3000n        2.3015     2.0174      2.5786
0.3100n        2.3461     2.0687      2.6194
0.3200n        2.3871     2.1144      2.6570
0.3300n        2.4248     2.1555      2.6917
0.3400n        2.4595     2.1927      2.7239
0.3500n        2.4914     2.2264      2.7537
0.3600n        2.5207     2.2575      2.7815
0.3800n        2.5727     2.3131      2.8320
0.4000n        2.6171     2.3615      2.8782
0.4200n        2.6556     2.4041      2.9221
0.4400n        2.6896     2.4416      2.9617
0.4600n        2.7201     2.4745      2.9979
0.4800n        2.7473     2.5032      3.0321
0.5000n        2.7722     2.5284      3.0640
0.5200n        2.7958     2.5506      3.0935
0.5400n        2.8171     2.5705      3.1208
0.5600n        2.8371     2.5885      3.1462
0.5800n        2.8568     2.6050      3.1699
0.6000n        2.8760     2.6202      3.1917
0.6200n        2.8945     2.6342      3.2117
0.6400n        2.9121     2.6474      3.2300
0.6600n        2.9287     2.6594      3.2466
0.6800n        2.9443     2.6704      3.2618
0.7000n        2.9590     2.6807      3.2757
0.7300n        2.9793     2.6938      3.2944
0.7600n        2.9976     2.7058      3.3111
0.7900n        3.0142     2.7174      3.3261
0.8200n        3.0293     2.7289      3.3397
0.8600n        3.0472     2.7435      3.3560
0.9000n        3.0631     2.7574      3.3706
0.9400n        3.0772     2.7705      3.3838
0.9900n        3.0929     2.7858      3.3988
1.0400n        3.1068     2.7997      3.4123
1.0900n        3.1193     2.8125      3.4245
1.1500n        3.1326     2.8262      3.4378
1.2100n        3.1446     2.8385      3.4498
1.2800n        3.1570     2.8511      3.4638
1.3400n        3.1666     2.8607      3.4755
1.3900n        3.1739     2.8680      3.4841
1.4200n        3.1781     2.8721      3.4888
1.4800n        3.1859     2.8797      3.4926
1.5300n        3.1919     2.8855      3.4966
1.5900n        3.1986     2.8920      3.5034
1.7100n        3.2104     2.9035      3.5202
1.7700n        3.2176     2.9086      3.5285