[IBIS Ver]  3.2
[File Name] flex10ke.ibs
[File Rev]  1.2 
|File rev 1.1: -RCL package and pin values updated. File names updated.  
|         1.2: -All slew-rate models are updated. 

[Date]      Oct. 1998
[Source]    ViewLogic consulting services 
|
[Notes]
Input and output models for FLEX 10KE devices.

The package for this model is a sample IBIS template.
It does not contain a device pinout. Add the device pinout to match the
package type and the pinout for the particular design.
These models were extracted from HSPICE models. 
All models are preliminary.


Models with "3" in their signal name means they have 3.3V vccio.
Models with "2" in their signal name means they have 2.5V vccio.
Models with "S" in their signal name means they have slow slew rate 'on'.
Models with "P" in their signal name means they have PCI clamp diode 'on'.
Models with "sP" in their signal name means they have PCI clamp 
diode and slow slew rate 'on'.


Package model is a dummy model. Actual package pin-out model must
be created by the user for any specific programmed pin-out.

COMMENTS:
All models in TYP, MIN, and MAX corners.

Model Conditions:
TYP:          2.5V   and 3.3V   TEMP=25C   Process = TT
MIN: (slow)   2.3V   and 3.0V   TEMP=85C   process = SS
MAX: (fast)   2.7V   and 3.6V   TEMP=0C    process = FF

Models extracted from SPICE simulations Altera SPICE models.
|
Model Generated Using VML vVML Editor - 2.15
|
QA using ibis2xtk -pv .0001 -ae .00001 -vt .00001
|
|
[Disclaimer]    Data is for modeling purposes only and is not guaranteed
|
[Copyright]     Copyright 1998, Altera Corporation.  All rights reserved
[Component]     FLEX_10KE
[Manufacturer]  Altera Corp.
[Package]
|
| variable       typ        min       max
R_pkg            100.00m    NA        NA
L_pkg            8.00nH     NA        NA
C_pkg            7.00pF     NA        NA
|
[Pin] signal_name     model_name               R_pin   L_pin  C_pin
1      10ke_2         10ke_2                 100.00m  8.00nH  7.00pF
2      10ke_2_s       10ke_2_s               100.00m  8.00nH  7.00pF
3      10ke_2_p       10ke_2_p               100.00m  8.00nH  7.00pF
4      10ke_2_s       10ke_2_sp              100.00m  8.00nH  7.00pF
5      10ke_3         10ke_3                 100.00m  8.00nH  7.00pF
6      10ke_3_s       10ke_3_s               100.00m  8.00nH  7.00pF
7      10ke_3_p       10ke_3_p               100.00m  8.00nH  7.00pF
8      10ke_3_sp      10ke_3_sp              100.00m  8.00nH  7.00pF
9       10ke_in       10ke_in                100.00m  8.00nH  7.00pF
|
|
[Model]     10ke_3_sp
|
Model_type   I/O
|
Vinl = 0.8000
Vinh = 2.0000
Vmeas = 1.5000
Cref = 5.00e-11
Rref = 1.00e+06
Vref = 0.00e+00
C_comp      3.0000pF   NA      NA
|
|
[Temperature Range]  25.0000  85.0000  0.0000
[Voltage Range]      3.3000   3.0000   3.6000
|
[GND_Clamp]
| voltage            I(typ)        I(min)          I(max)
  -3.3000e+000  -2.2880e+000  -2.3420e+000  -2.2670e+000
  -3.1050e+000  -2.0950e+000  -2.1501e+000  -2.0740e+000
  -2.9100e+000  -1.9030e+000  -1.9580e+000  -1.8810e+000
  -2.7150e+000  -1.7110e+000  -1.7661e+000  -1.6890e+000
  -2.5200e+000  -1.5190e+000  -1.5750e+000  -1.4970e+000
  -2.3250e+000  -1.3281e+000  -1.3840e+000  -1.3061e+000
  -2.1300e+000  -1.1370e+000  -1.1940e+000  -1.1150e+000
  -1.9350e+000  -9.4747e-001  -1.0046e+000  -9.2487e-001
  -1.7400e+000  -7.5860e-001  -8.1690e-001  -7.3570e-001
  -1.5450e+000  -5.7140e-001  -6.3045e-001  -5.4820e-001
  -1.4900e+000  -5.1910e-001  -5.7830e-001  -4.9580e-001
  -1.4350e+000  -4.6699e-001  -5.2640e-001  -4.4363e-001
  -1.3800e+000  -4.1530e-001  -4.7480e-001  -3.9190e-001
  -1.3250e+000  -3.6395e-001  -4.2355e-001  -3.4055e-001
  -1.2700e+000  -3.1320e-001  -3.7280e-001  -2.8980e-001
  -1.2150e+000  -2.6304e-001  -3.2253e-001  -2.3981e-001
  -1.1600e+000  -2.1390e-001  -2.7310e-001  -1.9090e-001
  -1.1050e+000  -1.6614e-001  -2.2454e-001  -1.4364e-001
  -1.0500e+000  -1.2040e-001  -1.7740e-001  -9.9080e-002
  -9.9500e-001  -7.8159e-002  -1.3229e-001  -5.9395e-002
  -9.4000e-001  -4.2210e-002  -9.0150e-002  -2.9100e-002
  -8.8500e-001  -1.7574e-002  -5.3136e-002  -1.3297e-002
  -8.3000e-001  -6.6980e-003  -2.4720e-002  -7.5840e-003
  -7.7500e-001  -3.0996e-003  -8.5246e-003  -4.7223e-003
  -7.2000e-001  -1.5140e-003  -2.5060e-003  -2.7070e-003
  -6.6500e-001  -6.5488e-004  -7.6549e-004  -1.3145e-003
  -6.1000e-001  -2.3700e-004  -2.4690e-004  -5.1320e-004
  -5.5500e-001  -7.3732e-005  -8.0388e-005  -1.6082e-004
  -5.0000e-001  -2.0630e-005  -2.5820e-005  -4.2780e-005
  -4.4500e-001  -5.2189e-006  -7.9954e-006  -9.9906e-006
  -3.9000e-001  -1.1820e-006  -2.3300e-006  -2.0270e-006
  -3.3500e-001  -2.4126e-007  -6.3229e-007  -3.5973e-007
  -2.8000e-001  -4.5030e-008  -1.5970e-007  -5.7080e-008
  -2.2500e-001  -7.8741e-009  -3.7816e-008  -8.3811e-009
  -1.7000e-001  -1.4180e-009  -8.5750e-009  -1.2900e-009
  -1.1500e-001  -3.8124e-010  -2.0332e-009  -3.4331e-010
  -6.0000e-002  -2.2380e-010  -6.5840e-010  -2.2360e-010
  -5.0000e-003  -1.9659e-010  -3.6451e-010  -2.0481e-010
  5.0000e-002  -1.8800e-010  -3.0540e-010  -1.9770e-010
  1.0500e-001  -1.8182e-010  -2.9309e-010  -1.9172e-010
  1.6000e-001  -1.7590e-010  -2.8520e-010  -1.8580e-010
  2.1500e-001  -1.7006e-010  -2.7795e-010  -1.7996e-010
  2.7000e-001  -1.6410e-010  -2.7080e-010  -1.7400e-010
  3.2500e-001  -1.5822e-010  -2.6376e-010  -1.6812e-010
  3.8000e-001  -1.5230e-010  -2.5670e-010  -1.6230e-010
  4.3500e-001  -1.4640e-010  -2.4976e-010  -1.5640e-010
  4.9000e-001  -1.4050e-010  -2.4270e-010  -1.5050e-010
  5.4500e-001  -1.3452e-010  -2.3572e-010  -1.4462e-010
  6.0000e-001  -1.2870e-010  -2.2880e-010  -1.3880e-010
  6.5500e-001  -1.2274e-010  -2.2180e-010  -1.3290e-010
  7.1000e-001  -1.1690e-010  -2.1480e-010  -1.2700e-010
  7.6500e-001  -1.1092e-010  -2.0782e-010  -1.2116e-010
  8.2000e-001  -1.0510e-010  -2.0080e-010  -1.1530e-010
  8.7500e-001  -9.9142e-011  -1.9374e-010  -1.0940e-010
  9.3000e-001  -9.3240e-011  -1.8680e-010  -1.0350e-010
  9.8500e-001  -8.7327e-011  -1.7975e-010  -9.7625e-011
  1.0400e+000  -8.1420e-011  -1.7270e-010  -9.1750e-011
  1.0950e+000  -7.5505e-011  -1.6565e-010  -8.5865e-011
  1.1500e+000  -6.9590e-011  -1.5860e-010  -7.9980e-011
  1.2050e+000  -6.3677e-011  -1.5152e-010  -7.4105e-011
  1.2600e+000  -5.7760e-011  -1.4440e-010  -6.8220e-011
  1.3150e+000  -5.1845e-011  -1.3735e-010  -6.2335e-011
  1.3700e+000  -4.5930e-011  -1.3020e-010  -5.6450e-011
  1.4250e+000  -4.0008e-011  -1.2306e-010  -5.0565e-011
  1.4800e+000  -3.4090e-011  -1.1600e-010  -4.4680e-011
  1.5350e+000  -2.8175e-011  -1.0885e-010  -3.8795e-011
  1.5900e+000  -2.2250e-011  -1.0170e-010  -3.2910e-011
  1.6450e+000  -1.6331e-011  -9.4483e-011  -2.7015e-011
  1.7000e+000  -1.0410e-011  -8.7300e-011  -2.1130e-011
  1.8950e+000  1.0600e-011  -6.1711e-011  -2.4688e-013
  2.0900e+000  3.1630e-011  -3.5940e-011  2.0650e-011
  2.2850e+000  5.2670e-011  -9.9787e-012  4.1543e-011
  2.4800e+000  7.3730e-011  1.6200e-011  6.2460e-011
  2.6750e+000  9.4810e-011  4.2664e-011  8.3384e-011
  2.8700e+000  1.1590e-010  7.4530e-011  1.0430e-010
  3.0650e+000  1.3705e-010  5.6984e-008  1.2528e-010
  3.2600e+000  1.6040e-010  4.8790e-006  1.4630e-010
|
[Pulldown]
| voltage            I(typ)        I(min)          I(max)
  -3.3000e+000  -2.0000e-003  -1.0000e-003  -2.0000e-003
  -3.1050e+000  -2.5000e-003  -8.7500e-004  -3.0625e-003
  -2.9100e+000  -2.0000e-003  -2.0000e-003  -3.0000e-003
  -2.7150e+000  -2.6875e-003  -2.0000e-003  -3.6875e-003
  -2.5200e+000  -3.0000e-003  -2.0000e-003  -4.0000e-003
  -2.3250e+000  -2.8750e-003  -3.0625e-003  -3.9375e-003
  -2.1300e+000  -4.0000e-003  -3.0000e-003  -5.0000e-003
  -1.9350e+000  -5.0500e-003  -4.0500e-003  -6.4500e-003
  -1.7400e+000  -6.5000e-003  -4.6000e-003  -8.3000e-003
  -1.5450e+000  -8.8500e-003  -5.9500e-003  -1.1750e-002
  -1.4900e+000  -9.8000e-003  -6.5000e-003  -1.3200e-002
  -1.4350e+000  -1.1113e-002  -7.1188e-003  -1.5169e-002
  -1.3800e+000  -1.2600e-002  -7.9000e-003  -1.7700e-002
  -1.3250e+000  -1.4694e-002  -8.9000e-003  -2.1288e-002
  -1.2700e+000  -1.7500e-002  -1.0100e-002  -2.6600e-002
  -1.2150e+000  -2.1631e-002  -1.1725e-002  -3.4969e-002
  -1.1600e+000  -2.7900e-002  -1.3900e-002  -4.9300e-002
  -1.1050e+000  -3.8169e-002  -1.6950e-002  -7.3113e-002
  -1.0500e+000  -5.5700e-002  -2.1400e-002  -1.0412e-001
  -9.9500e-001  -8.0941e-002  -2.8369e-002  -1.3378e-001
  -9.4000e-001  -1.0679e-001  -3.9550e-002  -1.5460e-001
  -8.8500e-001  -1.2307e-001  -5.5777e-002  -1.6090e-001
  -8.3000e-001  -1.2600e-001  -7.2290e-002  -1.5702e-001
  -7.7500e-001  -1.2152e-001  -8.0802e-002  -1.5008e-001
  -7.2000e-001  -1.1489e-001  -8.0344e-002  -1.4209e-001
  -6.6500e-001  -1.0750e-001  -7.5850e-002  -1.3339e-001
  -6.1000e-001  -9.9513e-002  -7.0143e-002  -1.2389e-001
  -5.5500e-001  -9.1166e-002  -6.4060e-002  -1.1379e-001
  -5.0000e-001  -8.2599e-002  -5.7824e-002  -1.0336e-001
  -4.4500e-001  -7.3890e-002  -5.1516e-002  -9.2646e-002
  -3.9000e-001  -6.5069e-002  -4.5168e-002  -8.1738e-002
  -3.3500e-001  -5.6147e-002  -3.8782e-002  -7.0684e-002
  -2.8000e-001  -4.7120e-002  -3.2390e-002  -5.9460e-002
  -2.2500e-001  -3.8015e-002  -2.5985e-002  -4.8086e-002
  -1.7000e-001  -2.8830e-002  -1.9590e-002  -3.6560e-002
  -1.1500e-001  -1.9564e-002  -1.3211e-002  -2.4880e-002
  -6.0000e-002  -1.0240e-002  -6.8630e-003  -1.3060e-002
  -5.0000e-003  -8.5462e-004  -5.6837e-004  -1.0938e-003
  5.0000e-002  8.3410e-003  5.5330e-003  1.0720e-002
  1.0500e-001  1.7035e-002  1.1266e-002  2.1965e-002
  1.6000e-001  2.5220e-002  1.6640e-002  3.2650e-002
  2.1500e-001  3.2907e-002  2.1661e-002  4.2783e-002
  2.7000e-001  4.0110e-002  2.6320e-002  5.2360e-002
  3.2500e-001  4.6833e-002  3.0646e-002  6.1385e-002
  3.8000e-001  5.3070e-002  3.4620e-002  6.9870e-002
  4.3500e-001  5.8847e-002  3.8267e-002  7.7822e-002
  4.9000e-001  6.4160e-002  4.1580e-002  8.5240e-002
  5.4500e-001  6.9021e-002  4.4563e-002  9.2138e-002
  6.0000e-001  7.3430e-002  4.7230e-002  9.8510e-002
  6.5500e-001  7.7392e-002  4.9581e-002  1.0441e-001
  7.1000e-001  8.0910e-002  5.1620e-002  1.0970e-001
  7.6500e-001  8.3993e-002  5.3356e-002  1.1448e-001
  8.2000e-001  8.6620e-002  5.4800e-002  1.1880e-001
  8.7500e-001  8.8777e-002  5.5961e-002  1.2261e-001
  9.3000e-001  9.0490e-002  5.6870e-002  1.2570e-001
  9.8500e-001  9.1809e-002  5.7584e-002  1.2830e-001
  1.0400e+000  9.2820e-002  5.8140e-002  1.3030e-001
  1.0950e+000  9.3606e-002  5.8586e-002  1.3181e-001
  1.1500e+000  9.4230e-002  5.8950e-002  1.3300e-001
  1.2050e+000  9.4740e-002  5.9265e-002  1.3392e-001
  1.2600e+000  9.5160e-002  5.9530e-002  1.3460e-001
  1.3150e+000  9.5526e-002  5.9760e-002  1.3525e-001
  1.3700e+000  9.5840e-002  5.9970e-002  1.3580e-001
  1.4250e+000  9.6118e-002  6.0155e-002  1.3618e-001
  1.4800e+000  9.6370e-002  6.0320e-002  1.3660e-001
  1.5350e+000  9.6601e-002  6.0476e-002  1.3696e-001
  1.5900e+000  9.6800e-002  6.0620e-002  1.3720e-001
  1.6450e+000  9.6993e-002  6.0748e-002  1.3748e-001
  1.7000e+000  9.7180e-002  6.0880e-002  1.3780e-001
  1.8950e+000  9.7740e-002  6.1270e-002  1.3861e-001
  2.0900e+000  9.8220e-002  6.1610e-002  1.3920e-001
  2.2850e+000  9.8647e-002  6.1923e-002  1.3981e-001
  2.4800e+000  9.9050e-002  6.2210e-002  1.4030e-001
  2.6750e+000  9.9430e-002  6.2480e-002  1.4079e-001
  2.8700e+000  9.9790e-002  6.2740e-002  1.4130e-001
  3.0650e+000  1.0007e-001  6.2982e-002  1.4177e-001
  3.2600e+000  1.0050e-001  6.3225e-002  1.4220e-001
  3.4550e+000  1.0080e-001  6.3468e-002  1.4260e-001
  3.6500e+000  1.0120e-001  6.3711e-002  1.4310e-001
  3.8450e+000  1.0150e-001  6.3976e-002  1.4360e-001
  4.0400e+000  1.0198e-001  6.4280e-002  1.4420e-001
  4.2350e+000  1.0261e-001  6.4650e-002  1.4501e-001
  4.4300e+000  1.0346e-001  6.5170e-002  1.4627e-001
  4.6250e+000  1.0473e-001  6.5756e-002  1.4805e-001
  4.8200e+000  1.0648e-001  6.6800e-002  1.5081e-001
  5.0150e+000  1.0911e-001  6.8144e-002  1.5486e-001
  5.2100e+000  1.1280e-001  7.0200e-002  1.6070e-001
  5.4050e+000  1.1802e-001  7.3119e-002  1.6868e-001
  5.6000e+000  1.2510e-001  7.6900e-002  1.7940e-001
  5.7950e+000  1.3439e-001  8.2063e-002  1.9350e-001
  5.9900e+000  1.4630e-001  8.8600e-002  2.1130e-001
  6.1850e+000  1.6118e-001  9.7081e-002  2.3337e-001
  6.3800e+000  1.7950e-001  1.0760e-001  2.5980e-001
  6.5750e+000  2.0130e-001  1.2044e-001  2.9124e-001
  6.6000e+000  2.0440e-001  1.2230e-001  2.9560e-001
|
[POWER_Clamp]
|voltage             I(typ)        I(min)          I(max)
  -3.3000e+000  3.6890e-001  3.0100e-001  4.3400e-001
  -3.1050e+000  3.4005e-001  2.7721e-001  4.0044e-001
  -2.9100e+000  3.1100e-001  2.5330e-001  3.6660e-001
  -2.7150e+000  2.8175e-001  2.2943e-001  3.3231e-001
  -2.5200e+000  2.5230e-001  2.0560e-001  2.9760e-001
  -2.3250e+000  2.2270e-001  1.8191e-001  2.6260e-001
  -2.1300e+000  1.9300e-001  1.5820e-001  2.2730e-001
  -1.9350e+000  1.6308e-001  1.3460e-001  1.9172e-001
  -1.7400e+000  1.3320e-001  1.1120e-001  1.5580e-001
  -1.5450e+000  1.0336e-001  8.8050e-002  1.1985e-001
  -1.4900e+000  9.4940e-002  8.1570e-002  1.0970e-001
  -1.4350e+000  8.6560e-002  7.5115e-002  9.9573e-002
  -1.3800e+000  7.8210e-002  6.8700e-002  8.9460e-002
  -1.3250e+000  6.9894e-002  6.2325e-002  7.9375e-002
  -1.2700e+000  6.1630e-002  5.6000e-002  6.9350e-002
  -1.2150e+000  5.3433e-002  4.9727e-002  5.9390e-002
  -1.1600e+000  4.5310e-002  4.3520e-002  4.9540e-002
  -1.1050e+000  3.7319e-002  3.7400e-002  3.9849e-002
  -1.0500e+000  2.9510e-002  3.1380e-002  3.0430e-002
  -9.9500e-001  2.1985e-002  2.5513e-002  2.1461e-002
  -9.4000e-001  1.4940e-002  1.9850e-002  1.3340e-002
  -8.8500e-001  8.7736e-003  1.4477e-002  6.9572e-003
  -8.3000e-001  4.2770e-003  9.5990e-003  3.4320e-003
  -7.7500e-001  2.0060e-003  5.5408e-003  1.9563e-003
  -7.2000e-001  1.0460e-003  2.7890e-003  1.1150e-003
  -6.6500e-001  5.3912e-004  1.4220e-003  5.4755e-004
  -6.1000e-001  2.5010e-004  8.1040e-004  2.1070e-004
  -5.5500e-001  9.7134e-005  4.7777e-004  6.1665e-005
  -5.0000e-001  3.0630e-005  2.7040e-004  1.4770e-005
  -4.4500e-001  8.2619e-006  1.3687e-004  3.1477e-006
  -3.9000e-001  2.0520e-006  5.9120e-005  6.1170e-007
  -3.3500e-001  4.9168e-007  2.1989e-005  1.1093e-007
  -2.8000e-001  1.1610e-007  7.3780e-006  1.9590e-008
  -2.2500e-001  2.7369e-008  2.3319e-006  3.6006e-009
  -1.7000e-001  6.5140e-009  7.0860e-007  8.0920e-010
  -1.1500e-001  1.6152e-009  2.0375e-007  3.0688e-010
  -6.0000e-002  4.5950e-010  4.9260e-008  2.0920e-010
  -5.0000e-003  1.8247e-010  2.1466e-009  1.8562e-010
  5.0000e-002  1.5870e-010  1.1370e-010  1.7780e-010
  1.0500e-001  1.5151e-010  8.1949e-011  1.7165e-010
  1.6000e-001  1.4530e-010  6.7830e-011  1.6570e-010
  2.1500e-001  1.3925e-010  5.8390e-011  1.5975e-010
  2.7000e-001  1.3330e-010  5.0310e-011  1.5380e-010
  3.2500e-001  1.2732e-010  4.2665e-011  1.4792e-010
  3.8000e-001  1.2130e-010  3.5150e-011  1.4200e-010
  4.3500e-001  1.1540e-010  2.7695e-011  1.3604e-010
  4.9000e-001  1.0940e-010  2.0260e-011  1.3020e-010
  5.4500e-001  1.0346e-010  1.2835e-011  1.2425e-010
  6.0000e-001  9.7510e-011  5.4290e-012  1.1830e-010
  6.5500e-001  9.1559e-011  -1.9481e-012  1.1240e-010
  7.1000e-001  8.5620e-011  -9.3090e-012  1.0650e-010
  7.6500e-001  7.9670e-011  -1.6655e-011  1.0054e-010
  8.2000e-001  7.3730e-011  -2.3980e-011  9.4660e-011
  8.7500e-001  6.7790e-011  -3.1296e-011  8.8754e-011
  9.3000e-001  6.1850e-011  -3.8590e-011  8.2850e-011
  9.8500e-001  5.5910e-011  -4.5868e-011  7.6945e-011
  1.0400e+000  4.9970e-011  -5.3140e-011  7.1050e-011
  1.0950e+000  4.4035e-011  -6.0390e-011  6.5146e-011
  1.1500e+000  3.8100e-011  -6.7630e-011  5.9240e-011
  1.2050e+000  3.2170e-011  -7.4855e-011  5.3347e-011
  1.2600e+000  2.6240e-011  -8.2060e-011  4.7450e-011
  1.3150e+000  2.0305e-011  -8.9254e-011  4.1544e-011
  1.3700e+000  1.4380e-011  -9.6440e-011  3.5650e-011
  1.4250e+000  8.4478e-012  -1.0365e-010  2.9755e-011
  1.4800e+000  2.5200e-012  -1.1080e-010  2.3860e-011
  1.5350e+000  -3.4050e-012  -1.1795e-010  1.7965e-011
  1.5900e+000  -9.3290e-012  -1.2500e-010  1.2070e-011
  1.6450e+000  -1.5249e-011  -1.3215e-010  6.1804e-012
  1.7000e+000  -2.1180e-011  -1.3930e-010  2.8890e-013
  1.8950e+000  -4.2165e-011  -1.6435e-010  -2.0595e-011
  2.0900e+000  -6.3140e-011  -1.8930e-010  -4.1470e-011
  2.2850e+000  -8.4103e-011  -2.1414e-010  -6.2335e-011
  2.4800e+000  -1.0510e-010  -2.3890e-010  -8.3190e-011
  2.6750e+000  -1.2600e-010  -2.6375e-010  -1.0406e-010
  2.8700e+000  -1.4690e-010  -2.8940e-010  -1.2490e-010
  3.0650e+000  -1.6785e-010  -7.1372e-010  -1.4578e-010
  3.2600e+000  -1.8920e-010  -9.5250e-008  -1.6660e-010
|
[Pullup]
| voltage            I(typ)        I(min)          I(max)
  -3.3000e+000  1.4240e-001  1.1880e-001  1.6280e-001
  -3.1050e+000  1.3511e-001  1.1224e-001  1.5456e-001
  -2.9100e+000  1.2760e-001  1.0580e-001  1.4610e-001
  -2.7150e+000  1.2010e-001  9.9244e-002  1.3759e-001
  -2.5200e+000  1.1260e-001  9.2700e-002  1.2920e-001
  -2.3250e+000  1.0490e-001  8.6044e-002  1.2055e-001
  -2.1300e+000  9.7100e-002  7.9400e-002  1.1190e-001
  -1.9350e+000  8.9494e-002  7.2775e-002  1.0312e-001
  -1.7400e+000  8.1600e-002  6.6100e-002  9.4400e-002
  -1.5450e+000  7.3700e-002  5.9350e-002  8.5500e-002
  -1.4900e+000  7.1460e-002  5.7430e-002  8.3000e-002
  -1.4350e+000  6.9221e-002  5.5535e-002  8.0477e-002
  -1.3800e+000  6.6990e-002  5.3700e-002  7.8040e-002
  -1.3250e+000  6.4756e-002  5.1725e-002  7.5581e-002
  -1.2700e+000  6.2570e-002  4.9800e-002  7.3050e-002
  -1.2150e+000  6.0292e-002  4.7942e-002  7.0735e-002
  -1.1600e+000  5.8190e-002  4.6040e-002  6.8360e-002
  -1.1050e+000  5.6050e-002  4.4150e-002  6.6095e-002
  -1.0500e+000  5.4000e-002  4.2280e-002  6.4140e-002
  -9.9500e-001  5.2116e-002  4.0418e-002  6.2672e-002
  -9.4000e-001  5.0580e-002  3.8610e-002  6.2210e-002
  -8.8500e-001  4.9633e-002  3.6885e-002  6.2373e-002
  -8.3000e-001  4.8863e-002  3.5291e-002  6.0908e-002
  -7.7500e-001  4.6908e-002  3.3895e-002  5.7684e-002
  -7.2000e-001  4.3954e-002  3.2411e-002  5.3945e-002
  -6.6500e-001  4.0670e-002  3.0356e-002  5.0037e-002
  -6.1000e-001  3.7280e-002  2.7890e-002  4.5989e-002
  -5.5500e-001  3.3846e-002  2.5292e-002  4.1846e-002
  -5.0000e-001  3.0399e-002  2.2670e-002  3.7635e-002
  -4.4500e-001  2.6957e-002  2.0063e-002  3.3422e-002
  -3.9000e-001  2.3518e-002  1.7471e-002  2.9199e-002
  -3.3500e-001  2.0110e-002  1.4891e-002  2.4999e-002
  -2.8000e-001  1.6720e-002  1.2353e-002  2.0810e-002
  -2.2500e-001  1.3355e-002  9.8399e-003  1.6650e-002
  -1.7000e-001  1.0020e-002  7.3623e-003  1.2520e-002
  -1.1500e-001  6.7282e-003  4.9277e-003  8.4194e-003
  -6.0000e-002  3.4810e-003  2.5410e-003  4.3650e-003
  -5.0000e-003  2.8741e-004  2.0909e-004  3.6109e-004
  5.0000e-002  -2.8340e-003  -2.0570e-003  -3.5680e-003
  1.0500e-001  -5.8631e-003  -4.2467e-003  -7.3968e-003
  1.6000e-001  -8.7990e-003  -6.3600e-003  -1.1130e-002
  2.1500e-001  -1.1646e-002  -8.3978e-003  -1.4756e-002
  2.7000e-001  -1.4390e-002  -1.0360e-002  -1.8280e-002
  3.2500e-001  -1.7052e-002  -1.2245e-002  -2.1705e-002
  3.8000e-001  -1.9620e-002  -1.4050e-002  -2.5030e-002
  4.3500e-001  -2.2091e-002  -1.5786e-002  -2.8251e-002
  4.9000e-001  -2.4470e-002  -1.7440e-002  -3.1370e-002
  5.4500e-001  -2.6757e-002  -1.9009e-002  -3.4389e-002
  6.0000e-001  -2.8940e-002  -2.0510e-002  -3.7310e-002
  6.5500e-001  -3.1040e-002  -2.1935e-002  -4.0121e-002
  7.1000e-001  -3.3040e-002  -2.3280e-002  -4.2830e-002
  7.6500e-001  -3.4949e-002  -2.4550e-002  -4.5440e-002
  8.2000e-001  -3.6770e-002  -2.5740e-002  -4.7940e-002
  8.7500e-001  -3.8491e-002  -2.6851e-002  -5.0346e-002
  9.3000e-001  -4.0110e-002  -2.7880e-002  -5.2640e-002
  9.8500e-001  -4.1644e-002  -2.8837e-002  -5.4834e-002
  1.0400e+000  -4.3080e-002  -2.9720e-002  -5.6930e-002
  1.0950e+000  -4.4420e-002  -3.0521e-002  -5.8916e-002
  1.1500e+000  -4.5670e-002  -3.1240e-002  -6.0790e-002
  1.2050e+000  -4.6819e-002  -3.1894e-002  -6.2565e-002
  1.2600e+000  -4.7880e-002  -3.2460e-002  -6.4240e-002
  1.3150e+000  -4.8846e-002  -3.2960e-002  -6.5806e-002
  1.3700e+000  -4.9710e-002  -3.3400e-002  -6.7270e-002
  1.4250e+000  -5.0492e-002  -3.3770e-002  -6.8619e-002
  1.4800e+000  -5.1180e-002  -3.4090e-002  -6.9880e-002
  1.5350e+000  -5.1795e-002  -3.4376e-002  -7.1020e-002
  1.5900e+000  -5.2330e-002  -3.4620e-002  -7.2070e-002
  1.6450e+000  -5.2800e-002  -3.4840e-002  -7.3010e-002
  1.7000e+000  -5.3220e-002  -3.5040e-002  -7.3860e-002
  1.8950e+000  -5.4375e-002  -3.5630e-002  -7.6181e-002
  2.0900e+000  -5.5220e-002  -3.6090e-002  -7.7770e-002
  2.2850e+000  -5.5875e-002  -3.6463e-002  -7.8925e-002
  2.4800e+000  -5.6410e-002  -3.6790e-002  -7.9830e-002
  2.6750e+000  -5.6871e-002  -3.7070e-002  -8.0570e-002
  2.8700e+000  -5.7270e-002  -3.7330e-002  -8.1200e-002
  3.0650e+000  -5.7629e-002  -3.7565e-002  -8.1747e-002
  3.2600e+000  -5.7960e-002  -3.7780e-002  -8.2240e-002
  3.4550e+000  -5.8270e-002  -3.7996e-002  -8.2691e-002
  3.6500e+000  -5.8560e-002  -3.8190e-002  -8.3100e-002
  3.8450e+000  -5.8836e-002  -3.8385e-002  -8.3480e-002
  4.0400e+000  -5.9100e-002  -3.8600e-002  -8.3851e-002
  4.2350e+000  -5.9369e-002  -3.8750e-002  -8.4198e-002
  4.4300e+000  -5.9700e-002  -3.8900e-002  -8.4546e-002
  4.6250e+000  -5.9875e-002  -3.9169e-002  -8.4867e-002
  4.8200e+000  -6.0300e-002  -3.9500e-002  -8.5400e-002
  5.0150e+000  -6.1050e-002  -4.0000e-002  -8.6044e-002
  5.2100e+000  -6.2300e-002  -4.1000e-002  -8.7300e-002
  5.4050e+000  -6.4688e-002  -4.3250e-002  -8.9325e-002
  5.6000e+000  -6.8000e-002  -4.5000e-002  -9.2800e-002
  5.7950e+000  -7.3500e-002  -4.7875e-002  -9.9000e-002
  5.9900e+000  -8.3000e-002  -5.5000e-002  -1.0900e-001
  6.1850e+000  -9.5812e-002  -6.4438e-002  -1.2475e-001
  6.3800e+000  -1.1500e-001  -7.7000e-002  -1.4600e-001
  6.5750e+000  -1.4056e-001  -9.5500e-002  -1.7500e-001
  6.6000e+000  -1.4400e-001  -9.8000e-002  -1.8000e-001
|
[Rising Waveform]
R_fixture = 5.00e+01
V_fixture = 0.00e+00
V_fixture_min = 0.00e+00
V_fixture_max = 0.00e+00
|Time         Typ(v)       Min(v)       Max(v)
  0.0000e+000  0.0000e+000  0.0000e+000  0.0000e+000
  1.2660e-010  -1.1436e-003  -8.0838e-004  -1.5116e-003
  2.5320e-010  -1.6754e-002  -1.2745e-002  -2.0749e-002
  3.7980e-010  -5.0394e-002  -4.2359e-002  -5.9409e-002
  5.0640e-010  -7.9373e-002  -6.8192e-002  -7.5090e-002
  6.3300e-010  -7.6367e-002  -7.3701e-002  3.4426e-002
  7.5960e-010  6.4516e-003  -5.9190e-002  3.8249e-001
  8.8620e-010  2.2527e-001  -2.9861e-002  9.6023e-001
  1.0128e-009  5.8965e-001  2.2024e-002  1.6096e+000
  1.1394e-009  1.0299e+000  1.1801e-001  2.1499e+000
  1.2660e-009  1.4349e+000  2.7562e-001  2.4821e+000
  1.3926e-009  1.7185e+000  4.8844e-001  2.6098e+000
  1.5192e-009  1.8644e+000  7.2265e-001  2.6053e+000
  1.6458e-009  1.9086e+000  9.3353e-001  2.5527e+000
  1.7724e-009  1.9140e+000  1.0894e+000  2.5115e+000
  1.8990e-009  1.9268e+000  1.1854e+000  2.5040e+000
  2.0256e-009  1.9652e+000  1.2397e+000  2.5279e+000
  2.1522e-009  2.0221e+000  1.2767e+000  2.5666e+000
  2.2788e-009  2.0805e+000  1.3165e+000  2.6047e+000
  2.4054e-009  2.1269e+000  1.3642e+000  2.6323e+000
  2.5320e-009  2.1552e+000  1.4168e+000  2.6472e+000
  2.6586e-009  2.1670e+000  1.4655e+000  2.6510e+000
  2.7852e-009  2.1700e+000  1.5027e+000  2.6490e+000
  2.9118e-009  2.1710e+000  1.5273e+000  2.6460e+000
  3.0384e-009  2.1730e+000  1.5428e+000  2.6440e+000
  3.1650e-009  2.1778e+000  1.5538e+000  2.6447e+000
  3.2916e-009  2.1852e+000  1.5652e+000  2.6470e+000
  3.4182e-009  2.1918e+000  1.5768e+000  2.6498e+000
  3.5448e-009  2.1977e+000  1.5895e+000  2.6517e+000
  3.6714e-009  2.2010e+000  1.6011e+000  2.6540e+000
  3.7980e-009  2.2030e+000  1.6110e+000  2.6550e+000
  3.9246e-009  2.2040e+000  1.6186e+000  2.6560e+000
  4.0512e-009  2.2050e+000  1.6231e+000  2.6560e+000
  4.1778e-009  2.2060e+000  1.6270e+000  2.6560e+000
  4.3044e-009  2.2066e+000  1.6306e+000  2.6560e+000
  4.4310e-009  2.2080e+000  1.6340e+000  2.6560e+000
  4.5576e-009  2.2079e+000  1.6369e+000  2.6560e+000
  4.6842e-009  2.2090e+000  1.6406e+000  2.6560e+000
  4.8108e-009  2.2100e+000  1.6431e+000  2.6570e+000
  4.9374e-009  2.2100e+000  1.6458e+000  2.6570e+000
  5.0640e-009  2.2100e+000  1.6470e+000  2.6570e+000
  5.1906e-009  2.2110e+000  1.6490e+000  2.6570e+000
  5.3172e-009  2.2110e+000  1.6500e+000  2.6570e+000
  5.4438e-009  2.2110e+000  1.6510e+000  2.6570e+000
  5.5704e-009  2.2110e+000  1.6520e+000  2.6570e+000
  5.6970e-009  2.2110e+000  1.6530e+000  2.6570e+000
  5.8236e-009  2.2110e+000  1.6540e+000  2.6570e+000
  5.9502e-009  2.2120e+000  1.6540e+000  2.6570e+000
  6.0768e-009  2.2120e+000  1.6550e+000  2.6570e+000
  6.2034e-009  2.2120e+000  1.6550e+000  2.6570e+000
  6.3300e-009  2.2120e+000  1.6560e+000  2.6570e+000
  6.4566e-009  2.2120e+000  1.6560e+000  2.6570e+000
  6.5832e-009  2.2120e+000  1.6560e+000  2.6570e+000
  6.7098e-009  2.2120e+000  1.6570e+000  2.6570e+000
  6.8364e-009  2.2120e+000  1.6570e+000  2.6570e+000
  6.9630e-009  2.2120e+000  1.6570e+000  2.6570e+000
  7.0896e-009  2.2120e+000  1.6570e+000  2.6570e+000
  7.2162e-009  2.2120e+000  1.6570e+000  2.6570e+000
  7.3428e-009  2.2120e+000  1.6580e+000  2.6570e+000
  7.4694e-009  2.2120e+000  1.6580e+000  2.6570e+000
  7.5960e-009  2.2120e+000  1.6580e+000  2.6570e+000
  7.7226e-009  2.2120e+000  1.6580e+000  2.6570e+000
  7.8492e-009  2.2120e+000  1.6580e+000  2.6570e+000
  7.9758e-009  2.2120e+000  1.6580e+000  2.6570e+000
  8.1024e-009  2.2120e+000  1.6580e+000  2.6570e+000
  8.2290e-009  2.2120e+000  1.6580e+000  2.6570e+000
  8.3556e-009  2.2120e+000  1.6580e+000  2.6570e+000
  8.4822e-009  2.2120e+000  1.6580e+000  2.6570e+000
  8.6088e-009  2.2120e+000  1.6580e+000  2.6570e+000
  8.7354e-009  2.2120e+000  1.6580e+000  2.6570e+000
  8.8620e-009  2.2120e+000  1.6580e+000  2.6570e+000
  8.9886e-009  2.2120e+000  1.6580e+000  2.6570e+000
  9.1152e-009  2.2120e+000  1.6580e+000  2.6570e+000
  9.2418e-009  2.2120e+000  1.6580e+000  2.6570e+000
  9.3684e-009  2.2120e+000  1.6580e+000  2.6570e+000
  9.4950e-009  2.2120e+000  1.6580e+000  2.6570e+000
  9.6216e-009  2.2120e+000  1.6580e+000  2.6570e+000
  9.7482e-009  2.2120e+000  1.6580e+000  2.6570e+000
  9.8748e-009  2.2120e+000  1.6580e+000  2.6570e+000
  1.0001e-008  2.2120e+000  1.6580e+000  2.6570e+000
  1.0751e-008  2.2120e+000  1.6580e+000  2.6570e+000
  1.1501e-008  2.2120e+000  1.6580e+000  2.6570e+000
  1.2251e-008  2.2120e+000  1.6580e+000  2.6570e+000
  1.3001e-008  2.2120e+000  1.6580e+000  2.6570e+000
  1.3751e-008  2.2120e+000  1.6580e+000  2.6570e+000
  1.4501e-008  2.2120e+000  1.6580e+000  2.6570e+000
  1.5251e-008  2.2120e+000  1.6580e+000  2.6570e+000
  1.6001e-008  2.2120e+000  1.6580e+000  2.6570e+000
  1.6751e-008  2.2120e+000  1.6580e+000  2.6570e+000
  1.7501e-008  2.2120e+000  1.6580e+000  2.6570e+000
  1.8251e-008  2.2120e+000  1.6580e+000  2.6570e+000
  1.9001e-008  2.2120e+000  1.6580e+000  2.6570e+000
  1.9751e-008  2.2120e+000  1.6580e+000  2.6570e+000
  2.0501e-008  2.2120e+000  1.6580e+000  2.6570e+000
  2.1251e-008  2.2120e+000  1.6580e+000  2.6570e+000
  2.2001e-008  2.2120e+000  1.6580e+000  2.6570e+000
  2.2751e-008  2.2120e+000  1.6580e+000  2.6570e+000
  2.3501e-008  2.2120e+000  1.6580e+000  2.6570e+000
  2.4251e-008  2.2120e+000  1.6580e+000  2.6570e+000
  2.5000e-008  2.2120e+000  1.6580e+000  2.6570e+000
|
[Falling Waveform]
R_fixture = 5.00e+01
V_fixture = 0.00e+00
V_fixture_min = 0.00e+00
V_fixture_max = 0.00e+00
|Time         Typ(v)       Min(v)       Max(v)
  0.0000e+000  2.2120e+000  1.6580e+000  2.6570e+000
  1.2660e-010  2.2120e+000  1.6580e+000  2.6570e+000
  2.5320e-010  2.2120e+000  1.6580e+000  2.6574e+000
  3.7980e-010  2.2080e+000  1.6580e+000  2.6450e+000
  5.0640e-010  2.1605e+000  1.6459e+000  2.5508e+000
  6.3300e-010  2.0142e+000  1.5816e+000  2.2928e+000
  7.5960e-010  1.7440e+000  1.4426e+000  1.8635e+000
  8.8620e-010  1.3852e+000  1.2435e+000  1.3522e+000
  1.0128e-009  1.0175e+000  1.0239e+000  8.7690e-001
  1.1394e-009  7.0827e-001  8.2059e-001  5.1380e-001
  1.2660e-009  4.8605e-001  6.5441e-001  2.8248e-001
  1.3926e-009  3.4206e-001  5.2585e-001  1.5815e-001
  1.5192e-009  2.5017e-001  4.2418e-001  1.0182e-001
  1.6458e-009  1.8679e-001  3.3818e-001  8.0315e-002
  1.7724e-009  1.3910e-001  2.6235e-001  7.1650e-002
  1.8990e-009  1.0226e-001  1.9687e-001  6.4327e-002
  2.0256e-009  7.4923e-002  1.4448e-001  5.4327e-002
  2.1522e-009  5.5744e-002  1.0674e-001  4.2110e-002
  2.2788e-009  4.2732e-002  8.2174e-002  2.9948e-002
  2.4054e-009  3.3745e-002  6.7031e-002  1.9968e-002
  2.5320e-009  2.7107e-002  5.7023e-002  1.3015e-002
  2.6586e-009  2.1813e-002  4.9153e-002  8.8614e-003
  2.7852e-009  1.7427e-002  4.1806e-002  6.6673e-003
  2.9118e-009  1.3958e-002  3.4619e-002  5.5359e-003
  3.0384e-009  1.1368e-002  2.7968e-002  4.8358e-003
  3.1650e-009  9.4794e-003  2.2346e-002  4.2395e-003
  3.2916e-009  8.0784e-003  1.7993e-002  3.6403e-003
  3.4182e-009  6.9791e-003  1.4798e-002  3.0471e-003
  3.5448e-009  6.0572e-003  1.2454e-002  2.5071e-003
  3.6714e-009  5.2446e-003  1.0642e-002  2.0638e-003
  3.7980e-009  4.5159e-003  9.2186e-003  1.7351e-003
  3.9246e-009  3.8724e-003  8.1342e-003  1.5154e-003
  4.0512e-009  3.3203e-003  7.2918e-003  1.3821e-003
  4.1778e-009  2.8662e-003  6.5906e-003  1.3050e-003
  4.3044e-009  2.5068e-003  5.9643e-003  1.2561e-003
  4.4310e-009  2.2311e-003  5.3897e-003  1.2136e-003
  4.5576e-009  2.0223e-003  4.8731e-003  1.1642e-003
  4.6842e-009  1.8624e-003  4.4266e-003  1.1049e-003
  4.8108e-009  1.7352e-003  4.0528e-003  1.0375e-003
  4.9374e-009  1.6281e-003  3.7419e-003  9.6528e-004
  5.0640e-009  1.5322e-003  3.4794e-003  8.9465e-004
  5.1906e-009  1.4446e-003  3.2470e-003  8.2911e-004
  5.3172e-009  1.3617e-003  3.0337e-003  7.7082e-004
  5.4438e-009  1.2837e-003  2.8343e-003  7.2020e-004