[IBIS Ver]  2.1
[File Name] flex6000.ibs     
[File Rev]  1.3             
|RCL package and pin values updated. Add COMMENTS.
|Combine Flex6000, Flex 6000A and EPC6024A IBIS models in one file.
|Change signal/model name to reflect the standard they support.
                            
[Date]      July 98
[Source]    Viewlogic
|
[Notes]
Input and output models for FLEX 6000K, FLEX 6000A and EPF6024A devices.
The Package for this model is a sample IBIS template
It does NOT contain correct pin-out or package
parasitics. These must be added by the users to fit
the package type and pinout being used.

Models with "5" in their signal name means they have 5V vccio.
Models with "3" in their signal name means they have 3.3V vccio.
Models with "2" in their signal name means they have 2.5V vccio.
Models with "S" in their signal name means they have slow slew rate 'on'. 
Models 6024A is for EPF6024A devices.

COMMETNS:
All models in TYP, MIN, and MAX corners.

Model Conditions:
TYP:          5.0V   3.3V   and 2.5V    TEMP=25C   Process = TT
MIN: (slow)   4.5V   3.0V   and 2.3V    TEMP=85C   process = SS
MAX: (fast)   5.5V   3.6V   and 2.7V    TEMP=0C    process = FF

Models extracted from SPICE simulations Altera SPICE models.
|
Model Generated Using VML vVML Editor - 2.10
|
QA using ibis2xtk -ae .001 -pv .00001
|
|
[Disclaimer]  Data is for modeling purposes only and is not guaranteed
|
[Copyright]   Copyright 1998, Altera Corporation.  All rights reserved
[Component]     flex6000_6000A
[Manufacturer]  Altera
[Package]
|
| variable       typ        min       max
R_pkg            100.00m    NA        NA
L_pkg            8.00nH     NA        NA
C_pkg            7.00pF     NA        NA
|
[Pin] signal_name    model_name              R_pin L_pin  C_pin
1      flex6k_3       flex6k_3           100.00m  8.00nH  7.00pF
2      flex6k_3_s     flex6k_3_s         100.00m  8.00nH  7.00pF
3      flex6k_5       flex6k_5           100.00m  8.00nH  7.00pF
4      flex6k_5_s     flex6k_5_s         100.00m  8.00nH  7.00pF

5      flex6ka_3      flex6ka_3          100.00m  8.00nH  7.00pF
6      flex6ka_3_s    flex6ka_3_s        100.00m  8.00nH  7.00pF
7      flex6ka_2      flex6ka_2          100.00m  8.00nH  7.00pF
8      flex6ka_2_s    flex6ka_2_s        100.00m  8.00nH  7.00pF 

9      6024a_3        6024a_3            100.00m  8.00nH  7.00pF
10     6024a_3_s      6024a_3_s          100.00m  8.00nH  7.00pF
11     6024a_2        6024a_2            100.00m  8.00nH  7.00pF
12     6024a_2_s      6024a_2_s          100.00m  8.00nH  7.00pF

13     6024a_in	      6024a_in		 100.00m  8.00nH  7.00pF
14     flex6ka_5_in   flex6ka_5_in	 100.00m  8.00nH  7.00pF
15     flex6ka_3_in   flex6ka_3_in       100.00m  8.00nH  7.00pF
16     flex6ka_2_in   flex6ka_2_in       100.00m  8.00nH  7.00pF
17     flex6k_in      flex6k_in		 100.00m  8.00nH  7.00pF
|
|
[Model]     flex6k_5_s
Model_type   I/O
|
Vinl = 0.8000
Vinh = 2.0000
Vmeas = 1.5000
Cref = 5.00e-11
Rref = 1.00e+05
Vref = 0.00e+00
C_comp      1.0000pF   NA      NA
|
|
[Temperature Range]   25.0000            85.0000           0.0000
[Voltage Range]        5.0000           4.5000              5.5000
[Pulldown]
| voltage            I(typ)        I(min)          I(max)
-5.000              -8.200e-04      -7.300e-04      -8.400e-04
-3.000              -8.200e-04      -7.300e-04      -8.400e-04
-2.000              -8.200e-04      -7.300e-04      -8.400e-04
-1.495              -8.200e-04      -7.300e-04      -8.400e-04
-1.240              -8.200e-04      -7.300e-04      -8.400e-04
-1.110              -8.200e-04      -7.300e-04      -8.400e-04
-1.045              -8.200e-04      -7.300e-04      -8.400e-04
-1.010              -8.200e-04      -7.300e-04      -8.400e-04
-0.990              -2.937e-02      -1.580e-02      -4.151e-02
-0.900              -5.979e-02      -2.573e-02      -8.692e-02
-0.850              -8.276e-02      -3.611e-02      -1.068e-01
-0.825              -9.081e-02      -4.303e-02      -1.103e-01
-0.810              -9.379e-02      -4.758e-02      -1.106e-01
-0.800              -9.502e-02      -5.065e-02      -1.104e-01
-0.790              -9.572e-02      -5.368e-02      -1.099e-01
-0.780              -9.598e-02      -5.658e-02      -1.092e-01
-0.770              -9.587e-02      -5.925e-02      -1.083e-01
-0.760              -9.550e-02      -6.162e-02      -1.073e-01
-0.750              -9.492e-02      -6.364e-02      -1.063e-01
-0.740              -9.419e-02      -6.526e-02      -1.052e-01
-0.730              -9.335e-02      -6.649e-02      -1.041e-01
-0.720              -9.243e-02      -6.734e-02      -1.030e-01
-0.710              -9.146e-02      -6.784e-02      -1.018e-01
-0.695              -8.992e-02      -6.803e-02      -1.001e-01
-0.680              -8.832e-02      -6.772e-02      -9.827e-02
-0.660              -8.613e-02      -6.674e-02      -9.582e-02
-0.635              -8.324e-02      -6.499e-02      -9.259e-02
-0.575              -7.594e-02      -5.955e-02      -8.452e-02
-0.505              -6.719e-02      -5.274e-02      -7.482e-02
-0.365              -4.881e-02      -3.821e-02      -5.450e-02
-0.180              -2.414e-02      -1.877e-02      -2.706e-02
-0.025              -3.355e-03      -2.595e-03      -3.774e-03
0.055               7.302e-03       5.651e-03       8.212e-03
0.130               1.700e-02       1.319e-02       1.910e-02
0.205               2.640e-02       2.052e-02       2.961e-02
0.280               3.549e-02       2.765e-02       3.975e-02
0.355               4.426e-02       3.456e-02       4.949e-02
0.430               5.270e-02       4.126e-02       5.884e-02
0.500               6.027e-02       4.732e-02       6.719e-02
0.570               6.755e-02       5.318e-02       7.519e-02
0.640               7.453e-02       5.884e-02       8.282e-02
0.710               8.121e-02       6.430e-02       9.008e-02
0.780               8.759e-02       6.956e-02       9.696e-02
0.850               9.365e-02       7.461e-02       1.035e-01
0.920               9.940e-02       7.946e-02       1.096e-01
0.990               1.048e-01       8.409e-02       1.154e-01
1.060               1.100e-01       8.852e-02       1.207e-01
1.130               1.148e-01       9.274e-02       1.258e-01
1.200               1.193e-01       9.674e-02       1.304e-01
1.270               1.235e-01       1.005e-01       1.347e-01
1.340               1.274e-01       1.041e-01       1.386e-01
1.415               1.312e-01       1.077e-01       1.423e-01
1.490               1.347e-01       1.111e-01       1.457e-01
1.565               1.378e-01       1.142e-01       1.487e-01
1.640               1.406e-01       1.171e-01       1.513e-01
1.715               1.431e-01       1.197e-01       1.535e-01
1.800               1.455e-01       1.225e-01       1.556e-01
1.895               1.477e-01       1.251e-01       1.576e-01
1.995               1.497e-01       1.276e-01       1.594e-01
2.095               1.513e-01       1.296e-01       1.610e-01
2.225               1.532e-01       1.317e-01       1.628e-01
2.375               1.550e-01       1.337e-01       1.644e-01
2.535               1.565e-01       1.354e-01       1.657e-01
2.715               1.577e-01       1.369e-01       1.668e-01
2.915               1.586e-01       1.381e-01       1.675e-01
3.150               1.592e-01       1.391e-01       1.680e-01
3.545               1.598e-01       1.399e-01       1.686e-01
4.320               1.608e-01       1.407e-01       1.696e-01
4.740               1.613e-01       1.411e-01       1.702e-01
5.040               1.618e-01       1.414e-01       1.708e-01
5.280               1.623e-01       1.417e-01       1.716e-01
5.485               1.631e-01       1.421e-01       1.726e-01
6.430               1.718e-01       1.471e-01       1.836e-01
7.220               1.915e-01       1.600e-01       2.072e-01
7.625               2.081e-01       1.717e-01       2.264e-01
7.830               2.184e-01       1.792e-01       2.382e-01
7.935               2.243e-01       1.835e-01       2.449e-01
7.990               2.275e-01       1.859e-01       2.485e-01
8.020               2.293e-01       1.872e-01       2.505e-01
8.040               2.305e-01       2.878e-01       2.519e-01
8.240               2.434e-01       2.878e-01       2.664e-01
8.345               2.507e-01       2.878e-01       2.747e-01
8.400               2.547e-01       2.878e-01       2.792e-01
8.430               2.569e-01       2.878e-01       2.817e-01
8.445               3.580e-01       2.878e-01       2.829e-01
9.140               3.580e-01       2.878e-01       3.508e-01
9.490               3.580e-01       2.878e-01       3.920e-01
9.670               3.580e-01       2.878e-01       4.151e-01
9.760               3.580e-01       2.878e-01       4.271e-01
9.810               3.580e-01       2.878e-01       4.339e-01
9.835               3.580e-01       2.878e-01       4.374e-01
9.850               3.580e-01       2.878e-01       5.375e-01
10.500               3.580e-01       2.878e-01       5.375e-01
|
[Pullup]
| voltage            I(typ)        I(min)          I(max)
10.000              -1.320e-03      -1.370e-03      -1.280e-03
8.250              -1.320e-03      -1.370e-03      -1.280e-03
7.375              -1.320e-03      -1.370e-03      -1.280e-03
6.935              -1.320e-03      -1.370e-03      -1.280e-03
6.710              -1.320e-03      -1.370e-03      -1.280e-03
6.595              -1.320e-03      -1.370e-03      -1.280e-03
6.535              -1.320e-03      -1.370e-03      -1.280e-03
6.505              -1.320e-03      -1.370e-03      -1.280e-03
6.485              -1.320e-03      -1.370e-03      -1.033e-01
6.415              -1.320e-03      -1.370e-03      -1.618e-01
6.360              -1.320e-03      -1.370e-03      -1.937e-01
6.180              -1.320e-03      -1.370e-03      -2.040e-01
6.090              -1.320e-03      -1.370e-03      -2.008e-01
6.040              -1.320e-03      -1.370e-03      -1.987e-01
6.015              -1.320e-03      -1.370e-03      -1.976e-01
6.000              -6.667e-02      -1.370e-03      -1.968e-01
5.900              -1.403e-01      -1.370e-03      -1.916e-01
5.850              -1.729e-01      -1.370e-03      -1.889e-01
5.820              -1.852e-01      -1.370e-03      -1.873e-01
5.805              -1.890e-01      -1.370e-03      -1.865e-01
5.795              -1.907e-01      -1.370e-03      -1.860e-01
5.785              -1.920e-01      -1.370e-03      -1.854e-01
5.775              -1.929e-01      -1.370e-03      -1.849e-01
5.760              -1.937e-01      -1.370e-03      -1.840e-01
5.740              -1.940e-01      -1.370e-03      -1.830e-01
5.715              -1.940e-01      -1.370e-03      -1.816e-01
5.680              -1.934e-01      -1.370e-03      -1.797e-01
5.630              -1.920e-01      -1.370e-03      -1.769e-01
5.565              -1.896e-01      -1.370e-03      -1.734e-01
5.530              -1.882e-01      -1.370e-03      -1.715e-01
5.510              -1.873e-01      -1.370e-03      -1.704e-01
5.500              -1.869e-01      -3.793e-02      -1.699e-01
5.485              -1.862e-01      -4.128e-02      -1.691e-01
5.470              -1.854e-01      -4.516e-02      -1.683e-01
5.460              -1.850e-01      -4.808e-02      -1.677e-01
5.450              -1.845e-01      -5.130e-02      -1.672e-01
5.440              -1.840e-01      -5.486e-02      -1.666e-01
5.430              -1.834e-01      -5.878e-02      -1.661e-01
5.420              -1.829e-01      -6.308e-02      -1.655e-01
5.410              -1.824e-01      -6.778e-02      -1.650e-01
5.400              -1.819e-01      -7.289e-02      -1.644e-01
5.390              -1.814e-01      -7.839e-02      -1.639e-01
5.375              -1.806e-01      -8.729e-02      -1.631e-01
5.340              -1.788e-01      -1.099e-01      -1.612e-01
5.320              -1.777e-01      -1.229e-01      -1.601e-01
5.310              -1.772e-01      -1.290e-01      -1.595e-01
5.300              -1.767e-01      -1.349e-01      -1.590e-01
5.290              -1.762e-01      -1.403e-01      -1.584e-01
5.280              -1.756e-01      -1.453e-01      -1.579e-01
5.270              -1.751e-01      -1.497e-01      -1.573e-01
5.260              -1.746e-01      -1.536e-01      -1.568e-01
5.250              -1.741e-01      -1.569e-01      -1.562e-01
5.240              -1.735e-01      -1.597e-01      -1.557e-01
5.230              -1.730e-01      -1.619e-01      -1.551e-01
5.220              -1.725e-01      -1.637e-01      -1.546e-01
5.210              -1.719e-01      -1.651e-01      -1.540e-01
5.200              -1.714e-01      -1.662e-01      -1.535e-01
5.185              -1.706e-01      -1.673e-01      -1.527e-01
5.170              -1.698e-01      -1.679e-01      -1.519e-01
5.150              -1.687e-01      -1.682e-01      -1.508e-01
5.120              -1.671e-01      -1.679e-01      -1.491e-01
5.070              -1.645e-01      -1.667e-01      -1.464e-01
5.020              -1.618e-01      -1.651e-01      -1.436e-01
4.945              -1.579e-01      -1.621e-01      -1.395e-01
4.715              -1.456e-01      -1.512e-01      -1.267e-01
3.980              -1.062e-01      -1.151e-01      -8.549e-02
3.610              -8.623e-02      -9.705e-02      -6.467e-02
3.380              -7.388e-02      -8.592e-02      -5.195e-02
3.195              -6.403e-02      -7.705e-02      -4.198e-02
3.040              -5.589e-02      -6.969e-02      -3.393e-02
2.905              -4.892e-02      -6.335e-02      -2.723e-02
2.785              -4.285e-02      -5.779e-02      -2.160e-02
2.675              -3.742e-02      -5.277e-02      -1.678e-02
2.575              -3.262e-02      -4.827e-02      -1.275e-02
2.485              -2.844e-02      -4.429e-02      -9.452e-03
2.400              -2.463e-02      -4.060e-02      -6.684e-03
2.320              -2.119e-02      -3.719e-02      -4.432e-03
2.245              -1.810e-02      -3.405e-02      -2.679e-03
2.180              -1.556e-02      -3.139e-02      -1.476e-03
2.115              -1.314e-02      -2.879e-02      -6.435e-04
2.030              -1.021e-02      -2.549e-02      -1.379e-04
1.940              -7.405e-03      -2.212e-02      -1.270e-05
1.855              -5.093e-03      -1.908e-02      -6.000e-07
1.795              -3.680e-03      -1.702e-02      -0.000e+00
1.715              -2.109e-03      -1.440e-02      -0.000e+00
1.645              -1.068e-03      -1.224e-02       0.000e+00
1.570              -3.895e-04      -1.007e-02       0.000e+00
1.460              -4.350e-05      -7.185e-03       0.000e+00
1.360              -2.400e-06      -4.914e-03       0.000e+00
1.265              -1.000e-07      -3.102e-03       0.000e+00
1.215              -0.000e+00      -2.297e-03       0.000e+00
1.130              -0.000e+00      -1.187e-03       0.000e+00
1.045               0.000e+00      -4.762e-04       0.000e+00
0.905               0.000e+00      -5.040e-05       0.000e+00
0.650               0.000e+00      -0.000e+00       0.000e+00
-5.500               0.000e+00       0.000e+00       0.000e+00
|
[Ramp]
dV/dt_r   1.4356/0.1400n   1.3730/0.1800n   1.4650/0.1200n
dV/dt_f   2.6768/8.5400n   2.3258/11.7900n   2.9798/6.9000n
|
|
|
[GND_Clamp]
|Voltage   I(typ)       I(min)       I(max)
-5.000   -1.068e+01   -1.080e+01   -1.063e+01
-4.285   -8.796e+00   -8.922e+00   -8.745e+00
-3.695   -7.247e+00   -7.375e+00   -7.195e+00
-3.205   -5.964e+00   -6.094e+00   -5.911e+00
-2.800   -4.905e+00   -5.038e+00   -4.851e+00
-2.465   -4.032e+00   -4.166e+00   -3.977e+00
-2.185   -3.304e+00   -3.441e+00   -3.248e+00
-1.955   -2.709e+00   -2.848e+00   -2.652e+00
-1.760   -2.207e+00   -2.347e+00   -2.149e+00
-1.600   -1.797e+00   -1.940e+00   -1.739e+00
-1.470   -1.467e+00   -1.611e+00   -1.408e+00
-1.360   -1.190e+00   -1.335e+00   -1.131e+00
-1.270   -9.662e-01   -1.112e+00   -9.064e-01
-1.200   -7.943e-01   -9.402e-01   -7.344e-01
-1.140   -6.494e-01   -7.952e-01   -5.895e-01
-1.090   -5.310e-01   -6.762e-01   -4.714e-01
-1.050   -4.384e-01   -5.826e-01   -3.794e-01
-1.015   -3.595e-01   -5.023e-01   -3.015e-01
-0.985   -2.941e-01   -4.348e-01   -2.375e-01
-0.960   -2.417e-01   -3.799e-01   -1.869e-01
-0.940   -2.016e-01   -3.369e-01   -1.489e-01
-0.925   -1.728e-01   -3.054e-01   -1.223e-01
-0.910   -1.454e-01   -2.745e-01   -9.776e-02
-0.895   -1.197e-01   -2.445e-01   -7.570e-02
-0.885   -1.037e-01   -2.250e-01   -6.261e-02
-0.875   -8.873e-02   -2.060e-01   -5.099e-02
-0.865   -7.488e-02   -1.874e-01   -4.094e-02
-0.855   -6.231e-02   -1.695e-01   -3.250e-02
-0.845   -5.111e-02   -1.521e-01   -2.563e-02
-0.835   -4.137e-02   -1.355e-01   -2.022e-02
-0.825   -3.312e-02   -1.196e-01   -1.608e-02
-0.815   -2.631e-02   -1.047e-01   -1.298e-02
-0.805   -2.084e-02   -9.061e-02   -1.069e-02
-0.800   -1.857e-02   -8.397e-02   -9.781e-03
-0.795   -1.657e-02   -7.760e-02   -9.000e-03
-0.790   -1.482e-02   -7.151e-02   -8.327e-03
-0.785   -1.329e-02   -6.571e-02   -7.745e-03
-0.780   -1.196e-02   -6.021e-02   -7.238e-03
-0.775   -1.081e-02   -5.501e-02   -6.795e-03
-0.770   -9.818e-03   -5.012e-02   -6.405e-03
-0.765   -8.956e-03   -4.554e-02   -6.058e-03
-0.760   -8.208e-03   -4.127e-02   -5.747e-03
-0.755   -7.559e-03   -3.731e-02   -5.467e-03
-0.750   -6.994e-03   -3.366e-02   -5.211e-03
-0.745   -6.500e-03   -3.030e-02   -4.977e-03
-0.740   -6.066e-03   -2.724e-02   -4.759e-03
-0.735   -5.683e-03   -2.445e-02   -4.557e-03
-0.730   -5.344e-03   -2.193e-02   -4.367e-03
-0.725   -5.040e-03   -1.966e-02   -4.187e-03
-0.720   -4.768e-03   -1.762e-02   -4.016e-03
-0.715   -4.521e-03   -1.580e-02   -3.853e-03
-0.710   -4.295e-03   -1.418e-02   -3.697e-03
-0.705   -4.089e-03   -1.274e-02   -3.547e-03
-0.700   -3.898e-03   -1.146e-02   -3.403e-03
-0.695   -3.720e-03   -1.034e-02   -3.263e-03
-0.690   -3.554e-03   -9.341e-03   -3.129e-03
-0.685   -3.399e-03   -8.464e-03   -2.999e-03
-0.680   -3.252e-03   -7.691e-03   -2.873e-03
-0.675   -3.112e-03   -7.010e-03   -2.751e-03
-0.670   -2.980e-03   -6.410e-03   -2.632e-03
-0.665   -2.854e-03   -5.880e-03   -2.518e-03
-0.660   -2.733e-03   -5.411e-03   -2.407e-03
-0.655   -2.617e-03   -4.997e-03   -2.299e-03
-0.650   -2.506e-03   -4.629e-03   -2.195e-03
-0.645   -2.399e-03   -4.302e-03   -2.094e-03
-0.640   -2.296e-03   -4.009e-03   -1.997e-03
-0.635   -2.197e-03   -3.748e-03   -1.902e-03
-0.630   -2.101e-03   -3.513e-03   -1.811e-03
-0.625   -2.009e-03   -3.301e-03   -1.723e-03
-0.620   -1.919e-03   -3.108e-03   -1.638e-03
-0.615   -1.833e-03   -2.934e-03   -1.556e-03
-0.605   -1.670e-03   -2.628e-03   -1.400e-03
-0.595   -1.517e-03   -2.368e-03   -1.256e-03
-0.585   -1.375e-03   -2.144e-03   -1.123e-03
-0.575   -1.159e-03   -1.855e-03   -9.218e-04
-0.565   -9.578e-04   -1.592e-03   -7.383e-04
-0.555   -7.846e-04   -1.362e-03   -5.842e-04
-0.545   -6.366e-04   -1.162e-03   -4.562e-04
-0.535   -5.112e-04   -9.869e-04   -3.514e-04
-0.525   -4.059e-04   -8.344e-04   -2.669e-04
-0.515   -3.186e-04   -7.017e-04   -2.005e-04
-0.500   -2.173e-04   -5.352e-04   -1.282e-04
-0.485   -1.457e-04   -4.021e-04   -7.990e-05
-0.470   -9.560e-05   -2.972e-04   -4.850e-05
-0.455   -6.140e-05   -2.168e-04   -2.860e-05
-0.435   -3.290e-05   -1.398e-04   -1.360e-05
-0.410   -1.420e-05   -7.810e-05   -5.000e-06
-0.375   -3.900e-06   -3.240e-05   -1.100e-06
-0.305   -2.000e-07   -4.300e-06   -0.000e+00
-0.265   -0.000e+00   -1.200e-06   -0.000e+00
-0.165   -0.000e+00   -0.000e+00   -0.000e+00
10.500    0.000e+00    0.000e+00    0.000e+00
|
[POWER_Clamp]
|Voltage   I(typ)       I(min)       I(max)
 5.265   -0.000e+00   -1.200e-06   -0.000e+00
 5.165   -0.000e+00   -0.000e+00   -0.000e+00
 4.965   -0.000e+00   -0.000e+00   -0.000e+00
 4.865   -0.000e+00    0.000e+00   -0.000e+00
 4.810   -0.000e+00    0.000e+00   -0.000e+00
 4.780   -0.000e+00    0.000e+00   -0.000e+00
-5.500    0.000e+00    0.000e+00    0.000e+00
[Rising Waveform]
R_fixture = 70.0000
V_fixture = 0.0000
V_fixture_min = 0.0000
V_fixture_max = 0.0000
|Time         Typ(v)       Min(v)       Max(v)
0.0000n        0.0000     0.0000      0.0000
0.0100n        0.0006     0.0007      0.0003
0.0200n        0.0006     0.0010      0.0003
0.1100n        0.0006     0.0010      0.0003
0.1600n        0.0006     0.0010      0.0003
0.1900n        0.0006     0.0010      0.0003
0.2100n        0.0006     0.0010      0.1768
0.2200n        0.0006     0.0010      0.3015
0.2300n        0.0006     0.0010      0.4261
0.2400n        0.0006     0.0010      0.5658
0.2500n        0.0340     0.0010      0.7113
0.2600n        0.1043     0.0010      0.8571
0.2700n        0.1936     0.0010      1.0016
0.2800n        0.2952     0.0010      1.1461
0.2900n        0.3994     0.0010      1.2744
0.3000n        0.5036     0.0010      1.3973
0.3100n        0.6200     0.0010      1.5203
0.3200n        0.7380     0.0010      1.6432
0.3300n        0.8554     0.0010      1.7661
0.3400n        0.9714     0.0027      1.8652
0.3500n        1.0874     0.0494      1.9504
0.3600n        1.2034     0.1021      2.0270
0.3700n        1.3079     0.1636      2.0954
0.3800n        1.4072     0.2299      2.1638
0.3900n        1.5066     0.2961      2.2169
0.4000n        1.6059     0.3624      2.2608
0.4100n        1.7052     0.4419      2.2976
0.4200n        1.7891     0.5233      2.3249
0.4300n        1.8625     0.6047      2.3522
0.4400n        1.9291     0.6860      2.3795
0.4500n        1.9865     0.7674      2.4068
0.4600n        2.0439     0.8513      2.4295
0.4700n        2.1013     0.9355      2.4381
0.4800n        2.1516     1.0197      2.4467
0.4900n        2.1903     1.1039      2.4554
0.5000n        2.2225     1.1881      2.4640
0.5100n        2.2512     1.2635      2.4705
0.5200n        2.2800     1.3376      2.4709
0.5300n        2.3087     1.4116      2.4713
0.5400n        2.3259     1.4857      2.4716
0.5500n        2.3405     1.5598      2.4720
0.5600n        2.3550     1.6189      2.4720
0.5700n        2.3696     1.6760      2.4720
0.5800n        2.3841     1.7330      2.4720
0.5900n        2.3908     1.7901      2.4720
0.6000n        2.3956     1.8471      2.4720
0.6100n        2.4005     1.8886      2.4720
0.6200n        2.4054     1.9280      2.4720
0.6300n        2.4103     1.9673      2.4720
0.6400n        2.4115     2.0066      2.4720
0.6500n        2.4119     2.0460      2.4720
0.6600n        2.4124     2.0749      2.4720
0.6700n        2.4128     2.1003      2.4720
0.6800n        2.4132     2.1226      2.4720
0.6900n        2.4132     2.1416      2.4720
0.7000n        2.4132     2.1605      2.4720
0.7100n        2.4132     2.1795      2.4720
0.7200n        2.4132     2.1985      2.4720
0.7300n        2.4132     2.2142      2.4720
0.7400n        2.4132     2.2244      2.4720
0.7500n        2.4132     2.2346      2.4720
0.7600n        2.4132     2.2449      2.4720
0.7700n        2.4132     2.2551      2.4720
0.7800n        2.4132     2.2633      2.4720
0.7900n        2.4132     2.2682      2.4720
0.8000n        2.4132     2.2731      2.4720
0.8100n        2.4132     2.2779      2.4720
0.8200n        2.4132     2.2828      2.4720
0.8300n        2.4132     2.2865      2.4720
0.8400n        2.4132     2.2884      2.4720
0.8500n        2.4132     2.2903      2.4720
0.8600n        2.4132     2.2921      2.4720
0.8700n        2.4132     2.2940      2.4720
0.8800n        2.4132     2.2953      2.4720
0.9000n        2.4132     2.2961      2.4720
0.9100n        2.4132     2.2965      2.4720
0.9200n        2.4132     2.2968      2.4720
0.9300n        2.4132     2.2970      2.4720
44.9900n        2.4132     2.2970      2.4720
|
[Rising Waveform]
R_fixture = 70.0000
V_fixture = 5.0000
V_fixture_min = 4.5000
V_fixture_max = 5.5000
|Time         Typ(v)       Min(v)       Max(v)
0.0000n        0.5331     0.6004      0.5320
0.0200n        0.5336     0.6014      0.5322
0.0700n        0.5336     0.6014      0.5322
0.1000n        0.5336     0.6014      0.5322
0.1200n        0.5336     0.6014      0.5719
0.1300n        0.5362     0.6014      0.6341
0.1400n        0.5722     0.6014      0.6963
0.1500n        0.6082     0.6034      0.8100
0.1600n        0.6442     0.6231      0.9847
0.1700n        0.7585     0.6459      1.1876
0.1800n        0.8729     0.6735      1.3942
0.1900n        0.9872     0.7055      1.6000
0.2000n        1.1015     0.7535      1.8002
0.2100n        1.2158     0.8160      1.9921
0.2300n        1.5520     0.9412      2.3561
0.2400n        1.7201     1.0038      2.5332
0.2500n        1.8882     1.0948      2.6908
0.2600n        2.0562     1.2144      2.8390
0.2800n        2.3580     1.4534      3.1091
0.3000n        2.6282     1.6970      3.3737
0.3100n        2.7600     1.8256      3.4860
0.3200n        2.8918     1.9542      3.5908
0.3300n        3.0073     2.0828      3.6891
0.3400n        3.1135     2.2114      3.7813
0.3500n        3.2134     2.3330      3.8735
0.3600n        3.3057     2.4460      3.9658
0.3700n        3.3979     2.5549      4.0492
0.3800n        3.4902     2.6576      4.1247
0.3900n        3.5720     2.7603      4.1937
0.4000n        3.6435     2.8539      4.2610
0.4100n        3.7150     2.9385      4.3282
0.4200n        3.7865     3.0231      4.3955
0.4300n        3.8580     3.1076      4.4484
0.4400n        3.9205     3.1922      4.5014
0.4500n        3.9740     3.2662      4.5544
0.4600n        4.0275     3.3298      4.6073
0.4700n        4.0810     3.3933      4.6603
0.4800n        4.1345     3.4569      4.7005
0.4900n        4.1827     3.5204      4.7407
0.5000n        4.2250     3.5758      4.7810
0.5100n        4.2651     3.6229      4.8212
0.5200n        4.3003     3.6701      4.8614
0.5400n        4.3709     3.7644      4.9226
0.5500n        4.4061     3.8055      4.9531
0.5600n        4.4414     3.8405      4.9837
0.5700n        4.4681     3.8755      5.0143
0.5900n        4.5215     3.9455      5.0608
0.6000n        4.5483     3.9761      5.0841
0.6100n        4.5750     4.0023      5.1074
0.6200n        4.5953     4.0284      5.1306
0.6400n        4.6359     4.0808      5.1660
0.6500n        4.6562     4.1043      5.1837
0.6600n        4.6765     4.1250      5.2014
0.6700n        4.6919     4.1445      5.2191
0.6900n        4.7228     4.1789      5.2460
0.7100n        4.7537     4.2132      5.2730
0.7200n        4.7655     4.2303      5.2864
0.7400n        4.7890     4.2572      5.3069
0.7500n        4.8007     4.2693      5.3171
0.7600n        4.8125     4.2806      5.3274
0.7700n        4.8214     4.2920      5.3376
0.7900n        4.8393     4.3146      5.3532
0.8000n        4.8483     4.3245      5.3610
0.8100n        4.8572     4.3331      5.3688
0.8200n        4.8640     4.3417      5.3766
0.8400n        4.8777     4.3589      5.3884
0.8600n        4.8913     4.3729      5.4002
0.8700n        4.8965     4.3794      5.4062
0.8900n        4.9069     4.3925      5.4152
0.9100n        4.9172     4.4032      5.4242
0.9200n        4.9212     4.4081      5.4287
0.9400n        4.9291     4.4180      5.4355
0.9600n        4.9370     4.4262      5.4423
0.9700n        4.9400     4.4300      5.4458
0.9900n        4.9460     4.4375      5.4510
1.0100n        4.9520     4.4437      5.4562
1.0400n        4.9589     4.4523      5.4627
1.0600n        4.9635     4.4571      5.4667
1.0900n        4.9687     4.4636      5.4717
1.1200n        4.9735     4.4689      5.4762
1.1600n        4.9788     4.4750      5.4808
1.2000n        4.9829     4.4799      5.4845
1.2500n        4.9870     4.4847      5.4882
1.3100n        4.9907     4.4889      5.4915
1.3800n        4.9936     4.4924      5.4942
1.4700n        4.9961     4.4953      5.4965
1.5900n        4.9980     4.4976      5.4982
1.7900n        4.9993     4.4992      5.4994
44.9900n        5.0000     4.5000      5.5000
|
[Falling Waveform]
R_fixture = 70.0000
V_fixture = 0.0000
V_fixture_min = 0.0000
V_fixture_max = 0.0000
|Time         Typ(v)       Min(v)       Max(v)
0.0000n        2.3926     2.2884      2.4417
0.0600n        2.3926     2.2884      2.4417
0.0900n        2.3926     2.2884      2.4417
0.1200n        2.3900     2.2860      2.4391
0.1400n        2.3892     2.2851      2.4385
0.1600n        2.3911     2.2861      2.4411
0.1700n        2.3926     2.2872      2.4417
0.1800n        2.3926     2.2884      2.4417
0.2100n        2.3926     2.2884      2.4417
0.2300n        2.3926     2.2884      2.4417
0.2400n        2.3926     2.2884      2.4341
0.2500n        2.3926     2.2884      2.4129
0.2600n        2.3926     2.2884      2.3916
0.2700n        2.3926     2.2884      2.3629
0.2800n        2.3785     2.2884      2.3227
0.3000n        2.3275     2.2884      2.2164
0.3100n        2.3020     2.2884      2.1633
0.3200n        2.2764     2.2884      2.0837
0.3300n        2.2422     2.2765      1.9941
0.3400n        2.1975     2.2636      1.8968
0.3500n        2.1476     2.2507      1.7950
0.3600n        2.0826     2.2313      1.6931
0.3700n        2.0177     2.2052      1.5829
0.3800n        1.9528     2.1792      1.4870
0.3900n        1.8820     2.1532      1.4010
0.4000n        1.7937     2.1272      1.3202
0.4100n        1.7054     2.0953      1.2394
0.4200n        1.6171     2.0559      1.1586
0.4300n        1.5288     2.0115      1.0919
0.4500n        1.3486     1.9056      0.9677
0.4600n        1.2709     1.8527      0.9057
0.4700n        1.1997     1.7966      0.8561
0.4900n        1.0615     1.6622      0.7694
0.5000n        0.9923     1.5906      0.7284
0.5100n        0.9408     1.5182      0.6875
0.5200n        0.8892     1.4458      0.6503
0.5400n        0.7860     1.3007      0.5885
0.5500n        0.7344     1.2281      0.5577
0.5600n        0.6983     1.1555      0.5268
0.5700n        0.6621     1.0828      0.4988
0.5800n        0.6260     1.0102      0.4756
0.5900n        0.5899     0.9578      0.4524
0.6000n        0.5537     0.9054      0.4292
0.6100n        0.5277     0.8530      0.4061
0.6200n        0.5018     0.8006      0.3846
0.6300n        0.4758     0.7482      0.3662
0.6400n        0.4498     0.7098      0.3477