[IBIS Ver]  2.1
[File Name] flex10ka.ibs
[File Rev]  1.5
| V1.5 changes (jnp 8/23/99)
| make comments in IBIS format
| removed control-M from text sections
| removed redundant voltage points in CLAMP sections
| V1.4
| Change [File name].
| RCL package and pin values updated. Add COMMETNS.
| Change the file name from _OUT to _BI
| 
[Date]      August 1999
[Source]    ViewCS
|
[Notes]
The package for this model is a sample IBIS template.
It does not contain a device pinout. Add the device pinout to match the
package type and the pinout for the particular design.
These models were extracted from HSPICE models. 
All models are preliminary.
Only driver model data is provided in these models.
Drivers with "slew" in the name have slow slew rate enabled.
Models in this file are simulated as if VCCIO is set to 3.3 V and 2.5 V.

COMMENTS:
All models in TYP, MIN and MAX corners.


TYP =        25C TYP Process, 3.3V and 2.5 V
MAX = (fast) 0C  FF process,  3.6V and 2.7V
MIN = (slow) 85C SS process,  3.0V and 2.3V

Models extracted from SPICE as provided by Altera.

Package is a dummy package with sample drivers.
Actual package pin-outs must be generated by user
according to programmed pin-out.
|
QA using ibis2xtk -pv .00001 -ae .001
|
|
[Disclaimer]  Data is for modeling purposes only and is not guaranteed
|
[Copyright]   Copyright 1998, Altera Corporation.  All rights reserved
[Component]     EPF10KA
[Manufacturer]  Altera
[Package]
|
| variable       typ        min       max
R_pkg            100.00m    NA        NA
L_pkg            8.00nH     NA        NA
C_pkg            7.00pF     NA        NA
|
[Pin] signal_name    model_name         R_pin L_pin  C_pin
1      10ka          10ka_BI            100.00m  8.00nH  7.00pF
2      10ka_s        10ka_s_BI          100.00m  8.00nH  7.00pF
3      10ka_p        10ka_pci_BI        100.00m  8.00nH  7.00pF
4      10ka_sp       10ka_s_pci_BI      100.00m  8.00nH  7.00pF
5      10ka_2v       10ka_2v_BI         100.00m  8.00nH  7.00pF
6      10ka_2v_s     10ka_2v_s_BI       100.00m  8.00nH  7.00pF
7      10ka_2v_p     10ka_2v_pci_BI     100.00m  8.00nH  7.00pF
8      10ka_2v_sp    10ka_2v_s_pci_BI   100.00m  8.00nH  7.00pF
|
|
[Model]     10ka_2v_s_pci_BI
Model_type   I/O
|
Vinl = 0.8000
Vinh = 2.0000
Vmeas = 1.5000
Cref = 5.00e-11
Rref = 1.00e+05
Vref = 0.00e+00
C_comp      3.0000pF   NA      NA
|
|
[Temperature Range]   50.00            50.0           50.0
[Voltage Range]        2.5000           2.3000              2.7000
[Pulldown]
| voltage            I(typ)        I(min)          I(max)
-5.000              -6.860e-04      -5.600e-04      -7.730e-04
-3.000              -6.860e-04      -5.600e-04      -7.730e-04
-2.000              -6.860e-04      -5.600e-04      -7.730e-04
-1.495              -6.860e-04      -5.600e-04      -7.730e-04
-1.240              -6.860e-04      -5.600e-04      -7.730e-04
-1.110              -6.860e-04      -5.600e-04      -7.730e-04
-1.045              -6.860e-04      -5.600e-04      -7.730e-04
-1.010              -6.860e-04      -5.600e-04      -7.730e-04
-0.990              -2.517e-02      -1.120e-02      -4.593e-02
-0.915              -4.445e-02      -1.618e-02      -7.616e-02
-0.865              -6.181e-02      -2.194e-02      -9.158e-02
-0.835              -7.065e-02      -2.686e-02      -9.611e-02
-0.815              -7.491e-02      -3.080e-02      -9.705e-02
-0.805              -7.644e-02      -3.294e-02      -9.703e-02
-0.795              -7.758e-02      -3.514e-02      -9.676e-02
-0.785              -7.833e-02      -3.738e-02      -9.631e-02
-0.775              -7.874e-02      -3.960e-02      -9.571e-02
-0.765              -7.884e-02      -4.175e-02      -9.502e-02
-0.755              -7.871e-02      -4.377e-02      -9.424e-02
-0.745              -7.838e-02      -4.562e-02      -9.342e-02
-0.735              -7.791e-02      -4.724e-02      -9.249e-02
-0.725              -7.733e-02      -4.861e-02      -9.147e-02
-0.715              -7.666e-02      -4.971e-02      -9.043e-02
-0.705              -7.584e-02      -5.053e-02      -8.938e-02
-0.695              -7.496e-02      -5.109e-02      -8.831e-02
-0.685              -7.404e-02      -5.140e-02      -8.723e-02
-0.675              -7.311e-02      -5.144e-02      -8.615e-02
-0.665              -7.215e-02      -5.127e-02      -8.505e-02
-0.650              -7.069e-02      -5.074e-02      -8.340e-02
-0.635              -6.922e-02      -4.999e-02      -8.172e-02
-0.620              -6.772e-02      -4.907e-02      -8.004e-02
-0.590              -6.497e-02      -4.708e-02      -7.719e-02
-0.560              -6.213e-02      -4.487e-02      -7.424e-02
-0.530              -5.909e-02      -4.250e-02      -7.110e-02
-0.505              -5.644e-02      -4.047e-02      -6.830e-02
-0.475              -5.314e-02      -3.798e-02      -6.472e-02
-0.440              -4.920e-02      -3.506e-02      -6.028e-02
-0.390              -4.349e-02      -3.090e-02      -5.357e-02
-0.290              -3.210e-02      -2.267e-02      -3.973e-02
-0.195              -2.140e-02      -1.503e-02      -2.657e-02
-0.105              -1.141e-02      -7.975e-03      -1.422e-02
-0.025              -2.690e-03      -1.873e-03      -3.362e-03
0.015               1.603e-03       1.114e-03       2.005e-03
0.070               7.378e-03       5.126e-03       9.240e-03
0.125               1.299e-02       9.017e-03       1.628e-02
0.175               1.793e-02       1.245e-02       2.250e-02
0.225               2.272e-02       1.577e-02       2.854e-02
0.275               2.736e-02       1.899e-02       3.439e-02
0.325               3.183e-02       2.209e-02       4.005e-02
0.375               3.613e-02       2.508e-02       4.550e-02
0.420               3.985e-02       2.767e-02       5.022e-02
0.465               4.343e-02       3.017e-02       5.476e-02
0.510               4.686e-02       3.256e-02       5.912e-02
0.555               5.013e-02       3.486e-02       6.328e-02
0.600               5.324e-02       3.705e-02       6.725e-02
0.645               5.620e-02       3.914e-02       7.101e-02
0.690               5.899e-02       4.113e-02       7.457e-02
0.735               6.161e-02       4.301e-02       7.792e-02
0.775               6.381e-02       4.459e-02       8.071e-02
0.815               6.587e-02       4.609e-02       8.333e-02
0.855               6.779e-02       4.750e-02       8.577e-02
0.895               6.958e-02       4.883e-02       8.804e-02
0.935               7.124e-02       5.007e-02       9.012e-02
0.975               7.275e-02       5.123e-02       9.203e-02
1.015               7.414e-02       5.230e-02       9.376e-02
1.055               7.538e-02       5.328e-02       9.531e-02
1.095               7.649e-02       5.418e-02       9.668e-02
1.155               7.791e-02       5.537e-02       9.842e-02
1.225               7.932e-02       5.652e-02       1.002e-01
1.295               8.057e-02       5.747e-02       1.018e-01
1.370               8.174e-02       5.837e-02       1.033e-01
1.445               8.275e-02       5.915e-02       1.046e-01
1.525               8.365e-02       5.985e-02       1.058e-01
1.605               8.439e-02       6.043e-02       1.068e-01
1.690               8.502e-02       6.094e-02       1.076e-01
1.785               8.555e-02       6.137e-02       1.083e-01
1.890               8.595e-02       6.172e-02       1.089e-01
2.015               8.624e-02       6.198e-02       1.093e-01
2.510               8.658e-02       6.227e-02       1.098e-01
3.005               8.679e-02       6.238e-02       1.100e-01
3.255               8.684e-02       6.243e-02       1.102e-01
3.385               8.685e-02       6.245e-02       1.102e-01
3.450               8.686e-02       6.247e-02       1.102e-01
3.485               8.687e-02       6.247e-02       1.102e-01
3.505               1.069e-01       7.532e-02       1.486e-01
7.700               1.069e-01       7.532e-02       1.486e-01
|
[Pullup]
| voltage            I(typ)        I(min)          I(max)
7.500              -4.643e-02      -2.654e-02      -7.414e-02
5.600              -4.643e-02      -2.654e-02      -7.414e-02
4.650              -4.643e-02      -2.654e-02      -7.414e-02
4.170              -4.643e-02      -2.654e-02      -7.414e-02
3.930              -4.643e-02      -2.654e-02      -7.414e-02
3.805              -4.643e-02      -2.654e-02      -7.414e-02
3.740              -4.643e-02      -2.654e-02      -7.414e-02
3.705              -4.643e-02      -2.654e-02      -7.414e-02
3.685              -4.643e-02      -2.654e-02      -5.738e-02
3.595              -4.643e-02      -2.654e-02      -5.730e-02
3.545              -4.643e-02      -2.654e-02      -5.732e-02
3.520              -4.643e-02      -2.654e-02      -5.733e-02
3.505              -4.643e-02      -2.654e-02      -5.732e-02
3.495              -3.573e-02      -2.654e-02      -5.731e-02
3.400              -3.564e-02      -2.654e-02      -5.715e-02
3.350              -3.562e-02      -2.654e-02      -5.705e-02
3.320              -3.562e-02      -2.654e-02      -5.698e-02
3.305              -3.562e-02      -2.654e-02      -5.694e-02
3.295              -3.562e-02      -2.044e-02      -5.692e-02
3.005              -3.527e-02      -2.029e-02      -5.630e-02
2.650              -3.471e-02      -1.999e-02      -5.545e-02
2.420              -3.431e-02      -1.975e-02      -5.486e-02
2.265              -3.403e-02      -1.959e-02      -5.441e-02
2.140              -3.380e-02      -1.945e-02      -5.399e-02
2.025              -3.358e-02      -1.931e-02      -5.351e-02
1.920              -3.336e-02      -1.919e-02      -5.299e-02
1.825              -3.313e-02      -1.908e-02      -5.243e-02
1.735              -3.287e-02      -1.896e-02      -5.182e-02
1.650              -3.258e-02      -1.885e-02      -5.115e-02
1.565              -3.223e-02      -1.872e-02      -5.038e-02
1.485              -3.184e-02      -1.857e-02      -4.957e-02
1.405              -3.139e-02      -1.839e-02      -4.866e-02
1.330              -3.090e-02      -1.818e-02      -4.772e-02
1.255              -3.033e-02      -1.793e-02      -4.668e-02
1.185              -2.974e-02      -1.765e-02      -4.563e-02
1.130              -2.923e-02      -1.740e-02      -4.474e-02
1.080              -2.872e-02      -1.715e-02      -4.383e-02
1.030              -2.817e-02      -1.687e-02      -4.283e-02
0.980              -2.759e-02      -1.657e-02      -4.172e-02
0.930              -2.696e-02      -1.623e-02      -4.051e-02
0.880              -2.624e-02      -1.586e-02      -3.920e-02
0.830              -2.544e-02      -1.546e-02      -3.779e-02
0.780              -2.456e-02      -1.502e-02      -3.628e-02
0.730              -2.358e-02      -1.451e-02      -3.466e-02
0.680              -2.252e-02      -1.394e-02      -3.295e-02
0.630              -2.138e-02      -1.331e-02      -3.114e-02
0.580              -2.015e-02      -1.261e-02      -2.923e-02
0.530              -1.884e-02      -1.184e-02      -2.722e-02
0.480              -1.745e-02      -1.101e-02      -2.511e-02
0.430              -1.597e-02      -1.012e-02      -2.290e-02
0.380              -1.442e-02      -9.172e-03      -2.060e-02
0.330              -1.278e-02      -8.159e-03      -1.820e-02
0.280              -1.106e-02      -7.085e-03      -1.571e-02
0.230              -9.264e-03      -5.952e-03      -1.312e-02
0.180              -7.388e-03      -4.761e-03      -1.043e-02
0.130              -5.435e-03      -3.512e-03      -7.657e-03
0.080              -3.406e-03      -2.206e-03      -4.786e-03
0.030              -1.300e-03      -8.437e-04      -1.822e-03
0.000               0.000e+00       0.000e+00       0.000e+00
-0.015               6.603e-04       4.299e-04       9.232e-04
-0.070               3.144e-03       2.060e-03       4.372e-03
-0.125               5.724e-03       3.774e-03       7.919e-03
-0.180               8.398e-03       5.569e-03       1.156e-02
-0.240               1.142e-02       7.618e-03       1.563e-02
-0.300               1.455e-02       9.760e-03       1.982e-02
-0.360               1.777e-02       1.199e-02       2.410e-02
-0.420               2.110e-02       1.432e-02       2.848e-02
-0.490               2.510e-02       1.713e-02       3.369e-02
-0.550               2.861e-02       1.960e-02       3.822e-02
-0.585               3.068e-02       2.103e-02       4.085e-02
-0.605               3.181e-02       2.180e-02       4.234e-02
-0.655               3.446e-02       2.358e-02       4.571e-02
-0.690               3.626e-02       2.478e-02       4.801e-02
-0.720               3.774e-02       2.579e-02       4.992e-02
-0.745               3.890e-02       2.661e-02       5.143e-02
-0.765               3.978e-02       2.725e-02       5.257e-02
-0.785               4.062e-02       2.788e-02       5.363e-02
-0.795               4.102e-02       2.819e-02       5.412e-02
-0.805               4.140e-02       2.851e-02       1.166e-01
-0.905               4.490e-02       3.152e-02       1.166e-01
-0.955               4.655e-02       3.296e-02       1.166e-01
-0.985               4.754e-02       3.380e-02       1.166e-01
-1.000               4.803e-02       3.422e-02       1.166e-01
-1.010               9.639e-02       3.449e-02       1.166e-01
-1.105               9.639e-02       3.700e-02       1.166e-01
-1.155               9.639e-02       3.826e-02       1.166e-01
-1.185               9.639e-02       3.900e-02       1.166e-01
-1.200               9.639e-02       3.936e-02       1.166e-01
-1.210               9.639e-02       7.498e-02       1.166e-01
-5.200               9.639e-02       7.498e-02       1.166e-01
|
[Ramp]
dV/dt_r   0.8584/0.3700n   0.5499/0.5900n   1.1269/0.2300n
dV/dt_f   0.8584/0.4300n   0.5499/0.6300n   1.1269/0.3200n
|
|
|
[GND_Clamp]
|Voltage   I(typ)       I(min)       I(max)
 -5.00    -3.16e+00    -3.19e+00    -3.14e+00
 -3.92    -2.32e+00    -2.36e+00    -2.31e+00
 -3.12    -1.70e+00    -1.74e+00    -1.69e+00
 -2.52    -1.25e+00    -1.29e+00    -1.23e+00
 -2.08    -9.07e-01    -9.50e-01    -8.90e-01
 -1.75    -6.57e-01    -7.01e-01    -6.40e-01
 -1.50    -4.77e-01    -5.22e-01    -4.59e-01
 -1.33    -3.47e-01    -3.93e-01    -3.29e-01
 -1.20    -2.53e-01    -2.99e-01    -2.35e-01
 -1.10    -1.85e-01    -2.31e-01    -1.67e-01
 -1.03    -1.37e-01    -1.83e-01    -1.20e-01
 -0.98    -1.04e-01    -1.49e-01    -8.73e-02
 -0.94    -7.91e-02    -1.23e-01    -6.33e-02
 -0.91    -5.85e-02    -1.00e-01    -4.45e-02
 -0.89    -4.50e-02    -8.50e-02    -3.30e-02
 -0.86    -3.29e-02    -7.03e-02    -2.39e-02
 -0.83    -2.27e-02    -5.63e-02    -1.74e-02
 -0.82    -1.77e-02    -4.84e-02    -1.48e-02
 -0.81    -1.49e-02    -4.34e-02    -1.35e-02
 -0.80    -1.15e-02    -3.63e-02    -1.20e-02
 -0.79    -9.73e-03    -3.18e-02    -1.13e-02
 -0.78    -8.31e-03    -2.76e-02    -1.06e-02
 -0.77    -7.18e-03    -2.38e-02    -1.01e-02
 -0.76    -6.29e-03    -2.02e-02    -9.68e-03
 -0.75    -5.93e-03    -1.85e-02    -9.48e-03
 -0.74    -5.31e-03    -1.55e-02    -9.09e-03
 -0.73    -4.82e-03    -1.28e-02    -8.74e-03
 -0.72    -4.42e-03    -1.05e-02    -8.41e-03
 -0.71    -4.09e-03    -8.52e-03    -8.09e-03
 -0.70    -3.81e-03    -6.88e-03    -7.78e-03
 -0.69    -3.45e-03    -4.97e-03    -7.34e-03
 -0.68    -3.23e-03    -4.01e-03    -7.06e-03
 -0.67    -3.04e-03    -3.25e-03    -6.78e-03
 -0.66    -2.86e-03    -2.65e-03    -6.51e-03
 -0.65    -2.77e-03    -2.41e-03    -6.37e-03
 -0.64    -2.60e-03    -1.99e-03    -6.10e-03
 -0.63    -2.44e-03    -1.67e-03    -5.84e-03
 -0.62    -2.28e-03    -1.41e-03    -5.59e-03
 -0.61    -2.21e-03    -1.31e-03    -5.43e-03
 -0.60    -1.83e-03    -9.79e-04    -4.73e-03
 -0.58    -1.45e-03    -7.15e-04    -4.07e-03
 -0.57    -1.13e-03    -5.18e-04    -3.46e-03
 -0.56    -8.64e-04    -3.71e-04    -2.89e-03
 -0.54    -6.43e-04    -2.62e-04    -2.37e-03
 -0.53    -4.66e-04    -1.82e-04    -1.90e-03
 -0.51    -3.29e-04    -1.25e-04    -1.49e-03
 -0.49    -2.25e-04    -8.54e-05    -1.14e-03
 -0.48    -1.49e-04    -5.76e-05    -8.55e-04
 -0.47    -9.75e-05    -3.82e-05    -6.22e-04
 -0.45    -6.26e-05    -2.50e-05    -4.39e-04
 -0.43    -3.33e-05    -1.38e-05    -2.62e-04
 -0.41    -1.69e-05    -7.40e-06    -1.47e-04
 -0.38    -5.60e-06    -2.70e-06    -5.80e-05
 -0.32    -4.00e-07    -3.00e-07    -5.10e-06
 -0.27    -0.00e+00    -1.00e-07    -7.00e-07
 -0.24    -0.00e+00    -0.00e+00    -2.00e-07
 -0.21    -0.00e+00    -0.00e+00    -0.00e+00
  1.14    -0.00e+00    -0.00e+00    -0.00e+00
  1.82    -0.00e+00    -0.00e+00    -0.00e+00
  2.16    -0.00e+00    -0.00e+00     0.00e+00
  2.33     0.00e+00     0.00e+00     0.00e+00
  2.42     0.00e+00     0.00e+00     0.00e+00
  2.47     0.00e+00     0.00e+00     0.00e+00
  2.50     0.00e+00     1.00e-07     0.00e+00
  2.77     0.00e+00     2.94e-05     0.00e+00
|
[POWER_Clamp]
|Voltage   I(typ)       I(min)       I(max)
  2.77    -0.00e+00    -0.00e+00    -0.00e+00
  2.67    -0.00e+00    -0.00e+00    -0.00e+00
  1.24    -0.00e+00    -0.00e+00    -0.00e+00
  0.52    -0.00e+00    -0.00e+00     0.00e+00
  0.16     0.00e+00    -0.00e+00     0.00e+00
 -0.02     0.00e+00     0.00e+00     0.00e+00
 -0.12     0.00e+00     0.00e+00     0.00e+00
 -0.17     0.00e+00     0.00e+00     0.00e+00
 -0.19     0.00e+00     1.00e-07     0.00e+00
 -0.23     0.00e+00     1.00e-07     0.00e+00
 -0.25     0.00e+00     2.00e-07     0.00e+00
 -0.27     0.00e+00     3.00e-07     0.00e+00
 -0.28     1.00e-07     3.00e-07     0.00e+00
 -0.29     1.00e-07     4.00e-07     0.00e+00
 -0.30     1.00e-07     5.00e-07     1.00e-07
 -0.39     1.10e-06     4.30e-06     8.00e-07
 -0.44     3.90e-06     1.41e-05     3.70e-06
 -0.48     9.60e-06     3.33e-05     1.11e-05
 -0.50     1.79e-05     6.22e-05     2.35e-05
 -0.52     2.90e-05     1.03e-04     4.15e-05
 -0.54     4.12e-05     1.51e-04     6.26e-05
 -0.55     5.80e-05     2.21e-04     9.27e-05
 -0.56     7.24e-05     2.84e-04     1.19e-04
 -0.57     9.01e-05     3.63e-04     1.52e-04
 -0.58     1.09e-04     4.62e-04     1.84e-04
 -0.59     1.31e-04     5.83e-04     2.19e-04
 -0.60     1.58e-04     7.29e-04     2.59e-04
 -0.61     1.88e-04     9.03e-04     3.05e-04
 -0.62     2.25e-04     1.11e-03     3.56e-04
 -0.63     2.69e-04     1.34e-03     4.14e-04
 -0.64     3.23e-04     1.61e-03     4.79e-04
 -0.65     3.88e-04     1.91e-03     5.52e-04
 -0.66     4.69e-04     2.23e-03     6.33e-04
 -0.67     5.71e-04     2.59e-03     7.24e-04
 -0.68     6.99e-04     2.97e-03     8.26e-04
 -0.69     8.58e-04     3.38e-03     9.43e-04
 -0.70     1.06e-03     3.81e-03     1.08e-03
 -0.71     1.30e-03     4.26e-03     1.24e-03
 -0.72     1.59e-03     4.74e-03     1.43e-03
 -0.73     2.12e-03     5.50e-03     1.78e-03
 -0.74     2.33e-03     5.76e-03     1.93e-03
 -0.75     3.02e-03     6.57e-03     2.44e-03
 -0.76     3.27e-03     6.85e-03     2.65e-03
 -0.77     4.12e-03     7.71e-03     3.37e-03
 -0.78     4.42e-03     8.01e-03     3.65e-03
 -0.79     4.74e-03     8.31e-03     3.94e-03
 -0.83     8.47e-03     1.15e-02     7.93e-03
 -0.89     1.35e-02     1.54e-02     1.41e-02
 -0.96     2.15e-02     2.11e-02     2.45e-02
 -1.08     3.46e-02     3.04e-02     4.20e-02
 -1.23     5.41e-02     4.41e-02     6.77e-02
 -1.41     7.98e-02     6.25e-02     1.01e-01
 -1.62     1.11e-01     8.54e-02     1.42e-01
 -1.87     1.49e-01     1.13e-01     1.89e-01
 -2.15     1.93e-01     1.46e-01     2.44e-01
 -2.48     2.46e-01     1.87e-01     3.10e-01
 -2.88     3.13e-01     2.39e-01     3.92e-01
 -3.38     3.95e-01     3.04e-01     4.90e-01
 -3.80     4.65e-01     3.60e-01     5.73e-01
 -4.22     5.36e-01     4.17e-01     6.56e-01
 -4.51     5.84e-01     4.57e-01     7.11e-01
 -4.67     6.09e-01     4.77e-01     7.40e-01
 -4.74     6.21e-01     4.87e-01     7.54e-01
 -4.78     6.28e-01     4.93e-01     7.62e-01
 -4.80     6.31e-01     4.96e-01     7.66e-01
 -4.91     6.31e-01     5.10e-01     7.85e-01
 -4.96     6.31e-01     5.17e-01     7.95e-01
 -4.99     6.31e-01     5.21e-01     8.01e-01
 -5.00     6.31e-01     5.23e-01     8.03e-01
 -5.01     6.31e-01     5.23e-01     7.67e-01
 -5.20     6.31e-01     5.23e-01     8.03e-01
[Rising Waveform]
R_fixture = 50.0000
V_fixture = 0.0000
V_fixture_min = 0.0000
V_fixture_max = 0.0000
|Time         Typ(v)       Min(v)       Max(v)
0.0000n        0.0000     0.0000      0.0000
0.0100n        0.0005     0.0005      0.0005
0.1800n        0.0006     0.0008      0.0005
0.2700n        0.0006     0.0008      0.0005
0.3200n        0.0006     0.0008      0.0005
0.3500n        0.0006     0.0008      0.0215
0.3700n        0.0006     0.0008      0.1162
0.3900n        0.0006     0.0008      0.2360
0.4100n        0.0006     0.0008      0.3735
0.4500n        0.0006     0.0008      0.6687
0.4700n        0.0006     0.0008      0.8125
0.4900n        0.0006     0.0008      0.9478
0.5000n        0.0006     0.0008      1.0099
0.5100n        0.0148     0.0008      1.0713
0.5200n        0.0381     0.0008      1.1262
0.5300n        0.0635     0.0008      1.1802
0.5500n        0.1222     0.0008      1.2732
0.5600n        0.1549     0.0008      1.3124
0.5700n        0.1888     0.0008      1.3506
0.5800n        0.2245     0.0008      1.3797
0.5900n        0.2609     0.0008      1.4075
0.6000n        0.2983     0.0008      1.4292
0.6100n        0.3359     0.0008      1.4499
0.6300n        0.4115     0.0008      1.4841
0.6500n        0.4859     0.0008      1.5131
0.6700n        0.5577     0.0008      1.5384
0.6900n        0.6259     0.0008      1.5608
0.7100n        0.6900     0.0008      1.5808
0.7300n        0.7496     0.0008      1.5986
0.7500n        0.8047     0.0008      1.6147
0.7700n        0.8551     0.0008      1.6292
0.7900n        0.9011     0.0008      1.6423
0.8100n        0.9425     0.0008      1.6541
0.8200n        0.9616     0.0008      1.6595
0.8300n        0.9798     0.0055      1.6649
0.8500n        1.0130     0.0236      1.6747
0.8700n        1.0425     0.0449      1.6837
0.8900n        1.0687     0.0688      1.6919
0.9100n        1.0920     0.0951      1.6995
0.9300n        1.1127     0.1232      1.7065
0.9500n        1.1311     0.1526      1.7131
0.9700n        1.1475     0.1828      1.7192
0.9900n        1.1622     0.2136      1.7249
1.0100n        1.1754     0.2444      1.7302
1.0300n        1.1874     0.2750      1.7353
1.0600n        1.2032     0.3199      1.7423
1.0900n        1.2170     0.3629      1.7488
1.1200n        1.2290     0.4036      1.7548
1.1500n        1.2394     0.4417      1.7604
1.1800n        1.2486     0.4772      1.7656
1.2100n        1.2569     0.5098      1.7705
1.2400n        1.2644     0.5398      1.7751
1.2700n        1.2714     0.5672      1.7795
1.3000n        1.2778     0.5921      1.7835
1.3300n        1.2838     0.6147      1.7874
1.3600n        1.2893     0.6353      1.7911
1.3900n        1.2946     0.6539      1.7945
1.4200n        1.2995     0.6709      1.7978
1.4500n        1.3042     0.6861      1.8010
1.4800n        1.3087     0.7000      1.8040
1.5100n        1.3129     0.7126      1.8069
1.5500n        1.3182     0.7275      1.8105
1.5900n        1.3233     0.7407      1.8139
1.6300n        1.3280     0.7523      1.8171
1.6800n        1.3336     0.7650      1.8208
1.7300n        1.3388     0.7760      1.8243
1.7900n        1.3446     0.7874      1.8282
1.8600n        1.3509     0.7987      1.8324
1.9400n        1.3575     0.8096      1.8367
2.0300n        1.3641     0.8198      1.8410
2.1400n        1.3714     0.8303      1.8456
2.2600n        1.3784     0.8399      1.8500
2.4000n        1.3855     0.8493      1.8543
2.5600n        1.3923     0.8583      1.8584
2.7400n        1.3987     0.8668      1.8621
2.9600n        1.4051     0.8753      1.8657
3.2100n        1.4108     0.8831      1.8688
3.4800n        1.4155     0.8899      1.8713
3.8000n        1.4196     0.8961      1.8733
4.1800n        1.4230     0.9016      1.8750
4.6300n        1.4257     0.9062      1.8762
5.2100n        1.4278     0.9101      1.8771
6.0200n        1.4293     0.9132      1.8777
7.3300n        1.4302     0.9154      1.8780
34.9900n        1.4306     0.9165      1.8781
|
[Rising Waveform]
R_fixture = 50.0000
V_fixture = 2.5000
V_fixture_min = 2.3000
V_fixture_max = 2.7000
|Time         Typ(v)       Min(v)       Max(v)
0.0000n        0.4370     0.5554      0.3825
0.0500n        0.4375     0.5560      0.3830
0.0800n        0.4375     0.5560      0.3830
0.1000n        0.4375     0.5560      0.3866
0.1100n        0.4395     0.5560      0.4178
0.1200n        0.4591     0.5602      0.4693
0.1300n        0.4887     0.5727      0.5774
0.1400n        0.5317     0.5918      0.7241
0.1500n        0.5970     0.6152      0.9526
0.1600n        0.6818     0.6437      1.1445
0.1700n        0.8146     0.6816      1.3510
0.1800n        0.9534     0.7254      1.4932
0.1900n        1.1069     0.7905      1.6053
0.2000n        1.2648     0.8686      1.6848
0.2100n        1.3886     0.9546      1.7557
0.2200n        1.4885     1.0456      1.8157
0.2300n        1.5846     1.1361      1.8685
0.2400n        1.6656     1.2264      1.9119
0.2500n        1.7336     1.3104      1.9521
0.2600n        1.7828     1.3905      1.9797
0.2700n        1.8242     1.4755      1.9962
0.2800n        1.8605     1.5497      2.0069
0.2900n        1.8945     1.6063      2.0168
0.3000n        1.9275     1.6463      2.0255
0.3100n        1.9517     1.6861      2.0377
0.3200n        1.9655     1.7204      2.0557
0.3300n        1.9763     1.7546      2.0769
0.3400n        1.9832     1.7828      2.1034
0.3500n        1.9884     1.8109      2.1324
0.3700n        1.9942     1.8568      2.1985
0.3800n        1.9964     1.8751      2.2303
0.3900n        1.9987     1.8931      2.2554
0.4000n        2.0010     1.9073      2.2696
0.4100n        2.0035     1.9213      2.2844
0.4300n        2.0090     1.9425      2.3164
0.4500n        2.0150     1.9586      2.3502
0.4600n        2.0183     1.9647      2.3672
0.4700n        2.0274     1.9706      2.3839
0.4900n        2.0528     1.9805      2.4151
0.5000n        2.0663     1.9838      2.4292
0.5100n        2.0810     1.9864      2.4427
0.5300n        2.1131     1.9872      2.4666
0.5400n        2.1308     1.9872      2.4771
0.5500n        2.1419     1.9872      2.4871
0.5700n        2.1565     1.9872      2.5045
0.5900n        2.1703     1.9872      2.5193
0.6100n        2.1866     1.9872      2.5321
0.6300n        2.2050     1.9872      2.5431
0.6500n        2.2241     1.9872      2.5528
0.6600n        2.2337     1.9874      2.5571
0.6900n        2.2609     1.9915      2.5687
0.7100n        2.2775     1.9945      2.5753
0.7300n        2.2926     1.9975      2.5813
0.7500n        2.3062     2.0008      2.5866
0.7700n        2.3184     2.0055      2.5915
0.7800n        2.3241     2.0095      2.5937
0.8000n        2.3345     2.0219      2.5980
0.8300n        2.3480     2.0405      2.6036
0.8500n        2.3560     2.0525      2.6071
0.8600n        2.3597     2.0586      2.6087
0.8700n        2.3631     2.0622      2.6102
0.9000n        2.3727     2.0658      2.6146
0.9200n        2.3783     2.0682      2.6173
0.9400n        2.3834     2.0723      2.6198
0.9600n        2.3881     2.0778      2.6222
1.0000n        2.3965     2.0918      2.6265
1.0500n        2.4052     2.1117      2.6314
1.1000n        2.4125     2.1310      2.6358
1.1400n        2.4176     2.1450      2.6390
1.1800n        2.4221     2.1577      2.6420
1.2300n        2.4271     2.1714      2.6454
1.2800n        2.4316     2.1832      2.6486
1.3300n        2.4355     2.1932      2.6515
1.3900n        2.4398     2.2034      2.6547
1.4600n        2.4443     2.2132      2.6582
1.5300n        2.4482     2.2213      2.6613
1.6200n        2.4528     2.2298      2.6649
1.7300n        2.4577     2.2380      2.6689
1.8600n        2.4626     2.2456      2.6729
2.0200n        2.4678     2.2529      2.6770
2.2200n        2.4732     2.2601      2.6813
2.4700n        2.4786     2.2670      2.6854
2.7700n        2.4835     2.2734      2.6891
3.1400n        2.4880     2.2794      2.6924
3.6000n        2.4918     2.2848      2.6951
4.1500n        2.4948     2.2894      2.6971
4.8700n        2.4971     2.2933      2.6985
5.8500n        2.4987     2.2964      2.6994
7.4600n        2.4996     2.2987      2.6999
34.9900n        2.5000     2.3000      2.7000
|
[Falling Waveform]
R_fixture = 50.0000
V_fixture = 0.0000
V_fixture_min = 0.0000
V_fixture_max = 0.0000
|Time         Typ(v)       Min(v)       Max(v)
0.0000n        1.4306     0.9165      1.8781
0.0600n        1.4306     0.9165      1.8781
0.0900n        1.4306     0.9165      1.8781
0.1300n        1.4296     0.9149      1.8775
0.1600n        1.4296     0.9145      1.8777
0.2000n        1.4302     0.9156      1.8781
0.2300n        1.4306     0.9161      1.8781
0.2500n        1.4306     0.9156      1.8781
0.2600n        1.4302     0.9149      1.8781
0.2700n        1.4291     0.9142      1.8781
0.2800n        1.4274     0.9128      1.8781
0.2900n        1.4249     0.9114      1.8778
0.3000n        1.4216     0.9091      1.8747
0.3100n        1.4170     0.9067      1.8714
0.3200n        1.4112     0.9032      1.8670
0.3300n        1.4037     0.8996      1.8604
0.3400n        1.3940     0.8947      1.8489
0.3500n        1.3814     0.8893      1.8311
0.3600n        1.3641     0.8831      1.8071
0.3700n        1.3405     0.8764      1.7787
0.3800n        1.3171     0.8693      1.7318
0.3900n        1.2894     0.8611      1.6798
0.4000n        1.2595     0.8523      1.6165
0.4100n        1.2278     0.8423      1.5526
0.4200n        1.1926     0.8316      1.4899
0.4300n        1.1550     0.8195      1.4273
0.4400n        1.1180     0.8065      1.3663
0.4600n        1.0488     0.7770      1.2469
0.4800n        0.9787     0.7435      1.1330
0.5000n        0.9127     0.7076      1.0263
0.5200n        0.8526     0.6710      0.9278
0.5400n        0.7981     0.6353      0.8369
0.5500n        0.7726     0.6182      0.7933
0.5700n        0.7233     0.5857      0.7159