[IBIS Ver]  2.1 
[File Name] flex10k.ibs  
[File Rev]  1.6   
|models has been updated for I/O buffer and the [RAMP] values with 
|slow slew rate on and off.  
|Add COMMENTS. Change the file name 
|from _OUT to _BI
[Date]      7/23/98
[Source]    Viewlogic
|
[Notes]
The Package for this model is a sample IBIS template
It does NOT contain correct pin-out or package
parasitics. These must be added by the users to fit
the package type and pinout being used.
Models in this file are simulated as if VCCIO is set to 5.0 V.
|
COMMENTS:
All models are typical only.
|
Model Generated Using VML v2.05
|
QA using ibis2xtk -ae .001 -pv .00001
|
|
[Disclaimer]  Data is for modeling purposes only and is not guaranteed
|
[Copyright]   Copyright 1998, Altera Corporation.  All rights reserved.
[Component]     epf10k
[Manufacturer]  Altera
[Package]
|
| variable       typ        min       max
R_pkg            100.00m    NA        NA
L_pkg            8.00nH     NA        NA
C_pkg            7.00pF     NA        NA
|
[Pin] signal_name            model_name          R_pin L_pin  C_pin
1      obuf_10k_5v_BI        obuf_10k_5v_BI      100.00m  8.00nH  7.00pF
2      obuf_10K_5v_slew_BI   obuf_10K_5v_slew_BI 100.00m  8.00nH  7.00pF
3      obuf_10k_3v_BI        obuf_10k_3v_BI      100.00m  8.00nH  7.00pF
4      obuf_10K_3v_slew_BI   obuf_10K_3v_slew_BI 100.00m  8.00nH  7.00pF
|
|
[Model]     obuf_10K_5v_slew_BI
Model_type   I/O
|
Vinl = 0.8000
Vinh = 2.0000
Vmeas = 1.5000
Cref = 5.00e-11
Rref = 1.00e+05
Vref = 0.00e+00
C_comp      3.0000pF   NA      NA
|
|
[Temperature Range]   25.0000            25.0000           25.0000
[Voltage Range]        5.0000           5.0000              5.0000
[Pulldown]
| voltage            I(typ)        I(min)          I(max)
-5.000              -8.290e-04      -8.290e-04      -8.290e-04
-3.000              -8.290e-04      -8.290e-04      -8.290e-04
-2.000              -8.290e-04      -8.290e-04      -8.290e-04
-1.490              -8.290e-04      -8.290e-04      -8.290e-04
-1.230              -8.290e-04      -8.290e-04      -8.290e-04
-1.100              -8.290e-04      -8.290e-04      -8.290e-04
-1.030              -8.290e-04      -8.290e-04      -8.290e-04
-0.990              -3.399e-02      -3.399e-02      -3.399e-02
-0.900              -5.644e-02      -5.644e-02      -5.644e-02
-0.850              -6.947e-02      -6.947e-02      -6.947e-02
-0.820              -7.620e-02      -7.620e-02      -7.620e-02
-0.800              -7.988e-02      -7.988e-02      -7.988e-02
-0.780              -8.273e-02      -8.273e-02      -8.273e-02
-0.770              -8.378e-02      -8.378e-02      -8.378e-02
-0.760              -8.457e-02      -8.457e-02      -8.457e-02
-0.750              -8.510e-02      -8.510e-02      -8.510e-02
-0.740              -8.537e-02      -8.537e-02      -8.537e-02
-0.730              -8.539e-02      -8.539e-02      -8.539e-02
-0.720              -8.519e-02      -8.519e-02      -8.519e-02
-0.710              -8.480e-02      -8.480e-02      -8.480e-02
-0.700              -8.426e-02      -8.426e-02      -8.426e-02
-0.680              -8.283e-02      -8.283e-02      -8.283e-02
-0.660              -8.109e-02      -8.109e-02      -8.109e-02
-0.630              -7.820e-02      -7.820e-02      -7.820e-02
-0.590              -7.405e-02      -7.405e-02      -7.405e-02
-0.550              -6.972e-02      -6.972e-02      -6.972e-02
-0.510              -6.523e-02      -6.523e-02      -6.523e-02
-0.460              -5.936e-02      -5.936e-02      -5.936e-02
-0.390              -5.087e-02      -5.087e-02      -5.087e-02
-0.320              -4.215e-02      -4.215e-02      -4.215e-02
-0.250              -3.325e-02      -3.325e-02      -3.325e-02
-0.180              -2.417e-02      -2.417e-02      -2.417e-02
-0.110              -1.490e-02      -1.490e-02      -1.490e-02
0.000               0.000e+00       0.000e+00       0.000e+00
0.060               8.139e-03       8.139e-03       8.139e-03
0.120               1.607e-02       1.607e-02       1.607e-02
0.180               2.380e-02       2.380e-02       2.380e-02
0.240               3.132e-02       3.132e-02       3.132e-02
0.300               3.863e-02       3.863e-02       3.863e-02
0.360               4.573e-02       4.573e-02       4.573e-02
0.420               5.263e-02       5.263e-02       5.263e-02
0.480               5.931e-02       5.931e-02       5.931e-02
0.540               6.580e-02       6.580e-02       6.580e-02
0.600               7.207e-02       7.207e-02       7.207e-02
0.660               7.814e-02       7.814e-02       7.814e-02
0.720               8.401e-02       8.401e-02       8.401e-02
0.780               8.967e-02       8.967e-02       8.967e-02
0.840               9.513e-02       9.513e-02       9.513e-02
0.900               1.004e-01       1.004e-01       1.004e-01
0.960               1.055e-01       1.055e-01       1.055e-01
1.020               1.103e-01       1.103e-01       1.103e-01
1.080               1.150e-01       1.150e-01       1.150e-01
1.140               1.195e-01       1.195e-01       1.195e-01
1.200               1.238e-01       1.238e-01       1.238e-01
1.260               1.279e-01       1.279e-01       1.279e-01
1.320               1.318e-01       1.318e-01       1.318e-01
1.380               1.356e-01       1.356e-01       1.356e-01
1.440               1.391e-01       1.391e-01       1.391e-01
1.500               1.425e-01       1.425e-01       1.425e-01
1.560               1.457e-01       1.457e-01       1.457e-01
1.620               1.488e-01       1.488e-01       1.488e-01
1.690               1.521e-01       1.521e-01       1.521e-01
1.760               1.552e-01       1.552e-01       1.552e-01
1.830               1.581e-01       1.581e-01       1.581e-01
1.900               1.608e-01       1.608e-01       1.608e-01
1.970               1.633e-01       1.633e-01       1.633e-01
2.010               1.646e-01       1.646e-01       1.646e-01
2.040               1.655e-01       1.655e-01       1.655e-01
2.140               1.669e-01       1.669e-01       1.669e-01
2.290               1.686e-01       1.686e-01       1.686e-01
2.450               1.702e-01       1.702e-01       1.702e-01
2.580               1.713e-01       1.713e-01       1.713e-01
2.670               1.720e-01       1.720e-01       1.720e-01
3.000               1.739e-01       1.739e-01       1.739e-01
3.530               1.765e-01       1.765e-01       1.765e-01
4.210               1.796e-01       1.796e-01       1.796e-01
5.110               1.834e-01       1.834e-01       1.834e-01
5.560               1.852e-01       1.852e-01       1.852e-01
5.790               1.861e-01       1.861e-01       1.861e-01
5.910               1.866e-01       1.866e-01       1.866e-01
5.980               1.868e-01       1.868e-01       1.868e-01
6.020               2.016e-01       2.016e-01       2.016e-01
10.000               2.016e-01       2.016e-01       2.016e-01
|
[Pullup]
| voltage            I(typ)        I(min)          I(max)
10.000              -1.446e-03      -1.446e-03      -1.446e-03
8.000              -1.446e-03      -1.446e-03      -1.446e-03
7.000              -1.446e-03      -1.446e-03      -1.446e-03
6.490              -1.446e-03      -1.446e-03      -1.446e-03
6.230              -1.446e-03      -1.446e-03      -1.446e-03
6.100              -1.446e-03      -1.446e-03      -1.446e-03
6.030              -1.446e-03      -1.446e-03      -1.446e-03
5.990              -1.351e-01      -1.351e-01      -1.351e-01
5.910              -1.669e-01      -1.669e-01      -1.669e-01
5.860              -1.845e-01      -1.845e-01      -1.845e-01
5.830              -1.936e-01      -1.936e-01      -1.936e-01
5.810              -1.987e-01      -1.987e-01      -1.987e-01
5.790              -2.030e-01      -2.030e-01      -2.030e-01
5.780              -2.047e-01      -2.047e-01      -2.047e-01
5.770              -2.062e-01      -2.062e-01      -2.062e-01
5.760              -2.074e-01      -2.074e-01      -2.074e-01
5.750              -2.083e-01      -2.083e-01      -2.083e-01
5.740              -2.091e-01      -2.091e-01      -2.091e-01
5.730              -2.096e-01      -2.096e-01      -2.096e-01
5.720              -2.100e-01      -2.100e-01      -2.100e-01
5.710              -2.103e-01      -2.103e-01      -2.103e-01
5.700              -2.105e-01      -2.105e-01      -2.105e-01
5.690              -2.106e-01      -2.106e-01      -2.106e-01
5.670              -2.107e-01      -2.107e-01      -2.107e-01
5.650              -2.107e-01      -2.107e-01      -2.107e-01
5.620              -2.105e-01      -2.105e-01      -2.105e-01
5.590              -2.102e-01      -2.102e-01      -2.102e-01
5.560              -2.098e-01      -2.098e-01      -2.098e-01
5.530              -2.093e-01      -2.093e-01      -2.093e-01
5.500              -2.088e-01      -2.088e-01      -2.088e-01
5.470              -2.081e-01      -2.081e-01      -2.081e-01
5.450              -2.075e-01      -2.075e-01      -2.075e-01
5.430              -2.070e-01      -2.070e-01      -2.070e-01
5.400              -2.059e-01      -2.059e-01      -2.059e-01
5.370              -2.047e-01      -2.047e-01      -2.047e-01
5.340              -2.034e-01      -2.034e-01      -2.034e-01
5.300              -2.014e-01      -2.014e-01      -2.014e-01
5.250              -1.989e-01      -1.989e-01      -1.989e-01
5.190              -1.957e-01      -1.957e-01      -1.957e-01
5.110              -1.914e-01      -1.914e-01      -1.914e-01
4.980              -1.841e-01      -1.841e-01      -1.841e-01
4.600              -1.625e-01      -1.625e-01      -1.625e-01
4.380              -1.500e-01      -1.500e-01      -1.500e-01
4.180              -1.387e-01      -1.387e-01      -1.387e-01
3.990              -1.281e-01      -1.281e-01      -1.281e-01
3.810              -1.181e-01      -1.181e-01      -1.181e-01
3.640              -1.088e-01      -1.088e-01      -1.088e-01
3.480              -1.001e-01      -1.001e-01      -1.001e-01
3.330              -9.201e-02      -9.201e-02      -9.201e-02
3.180              -8.405e-02      -8.405e-02      -8.405e-02
3.040              -7.670e-02      -7.670e-02      -7.670e-02
2.910              -6.997e-02      -6.997e-02      -6.997e-02
2.780              -6.334e-02      -6.334e-02      -6.334e-02
2.660              -5.730e-02      -5.730e-02      -5.730e-02
2.550              -5.186e-02      -5.186e-02      -5.186e-02
2.440              -4.651e-02      -4.651e-02      -4.651e-02
2.340              -4.174e-02      -4.174e-02      -4.174e-02
2.250              -3.754e-02      -3.754e-02      -3.754e-02
2.160              -3.342e-02      -3.342e-02      -3.342e-02
2.080              -2.985e-02      -2.985e-02      -2.985e-02
2.000              -2.636e-02      -2.636e-02      -2.636e-02
1.930              -2.340e-02      -2.340e-02      -2.340e-02
1.860              -2.052e-02      -2.052e-02      -2.052e-02
1.790              -1.773e-02      -1.773e-02      -1.773e-02
1.730              -1.544e-02      -1.544e-02      -1.544e-02
1.670              -1.323e-02      -1.323e-02      -1.323e-02
1.610              -1.112e-02      -1.112e-02      -1.112e-02
1.560              -9.454e-03      -9.454e-03      -9.454e-03
1.510              -7.872e-03      -7.872e-03      -7.872e-03
1.460              -6.387e-03      -6.387e-03      -6.387e-03
1.410              -5.011e-03      -5.011e-03      -5.011e-03
1.370              -3.997e-03      -3.997e-03      -3.997e-03
1.330              -3.071e-03      -3.071e-03      -3.071e-03
1.290              -2.241e-03      -2.241e-03      -2.241e-03
1.250              -1.518e-03      -1.518e-03      -1.518e-03
1.220              -1.054e-03      -1.054e-03      -1.054e-03
1.190              -6.645e-04      -6.645e-04      -6.645e-04
1.160              -3.563e-04      -3.563e-04      -3.563e-04
1.130              -1.379e-04      -1.379e-04      -1.379e-04
1.090              -2.710e-05      -2.710e-05      -2.710e-05
0.900              -0.000e+00      -0.000e+00      -0.000e+00
-5.000               0.000e+00       0.000e+00       0.000e+00
|
[Ramp]
dV/dt_r   1.4951/0.1800n   1.4951/0.1800n   1.4951/0.1800n
dV/dt_f   2.5501/5.8200n   2.5501/5.8200n   2.5501/5.8200n
|
|
|
[GND_Clamp]
|Voltage   I(typ)       I(min)       I(max)
-5.000   -4.150e+00   -4.150e+00   -4.150e+00
-4.470   -3.618e+00   -3.618e+00   -3.618e+00
-4.010   -3.156e+00   -3.156e+00   -3.156e+00
-3.610   -2.754e+00   -2.754e+00   -2.754e+00
-3.260   -2.404e+00   -2.404e+00   -2.404e+00
-2.950   -2.094e+00   -2.094e+00   -2.094e+00
-2.680   -1.824e+00   -1.824e+00   -1.824e+00
-2.450   -1.595e+00   -1.595e+00   -1.595e+00
-2.240   -1.386e+00   -1.386e+00   -1.386e+00
-2.060   -1.207e+00   -1.207e+00   -1.207e+00
-1.900   -1.049e+00   -1.049e+00   -1.049e+00
-1.760   -9.112e-01   -9.112e-01   -9.112e-01
-1.640   -7.934e-01   -7.934e-01   -7.934e-01
-1.540   -6.957e-01   -6.957e-01   -6.957e-01
-1.450   -6.082e-01   -6.082e-01   -6.082e-01
-1.370   -5.308e-01   -5.308e-01   -5.308e-01
-1.300   -4.636e-01   -4.636e-01   -4.636e-01
-1.240   -4.064e-01   -4.064e-01   -4.064e-01
-1.180   -3.497e-01   -3.497e-01   -3.497e-01
-1.130   -3.029e-01   -3.029e-01   -3.029e-01
-1.090   -2.660e-01   -2.660e-01   -2.660e-01
-1.050   -2.295e-01   -2.295e-01   -2.295e-01
-1.020   -2.025e-01   -2.025e-01   -2.025e-01
-0.990   -1.760e-01   -1.760e-01   -1.760e-01
-0.960   -1.501e-01   -1.501e-01   -1.501e-01
-0.940   -1.332e-01   -1.332e-01   -1.332e-01
-0.920   -1.167e-01   -1.167e-01   -1.167e-01
-0.900   -1.007e-01   -1.007e-01   -1.007e-01
-0.880   -8.526e-02   -8.526e-02   -8.526e-02
-0.860   -7.061e-02   -7.061e-02   -7.061e-02
-0.850   -6.363e-02   -6.363e-02   -6.363e-02
-0.840   -5.692e-02   -5.692e-02   -5.692e-02
-0.830   -5.053e-02   -5.053e-02   -5.053e-02
-0.820   -4.447e-02   -4.447e-02   -4.447e-02
-0.810   -3.881e-02   -3.881e-02   -3.881e-02
-0.800   -3.357e-02   -3.357e-02   -3.357e-02
-0.790   -2.881e-02   -2.881e-02   -2.881e-02
-0.780   -2.453e-02   -2.453e-02   -2.453e-02
-0.770   -2.078e-02   -2.078e-02   -2.078e-02
-0.760   -1.755e-02   -1.755e-02   -1.755e-02
-0.750   -1.481e-02   -1.481e-02   -1.481e-02
-0.740   -1.255e-02   -1.255e-02   -1.255e-02
-0.730   -1.070e-02   -1.070e-02   -1.070e-02
-0.720   -9.212e-03   -9.212e-03   -9.212e-03
-0.710   -8.017e-03   -8.017e-03   -8.017e-03
-0.700   -7.059e-03   -7.059e-03   -7.059e-03
-0.690   -6.283e-03   -6.283e-03   -6.283e-03
-0.680   -5.646e-03   -5.646e-03   -5.646e-03
-0.670   -5.111e-03   -5.111e-03   -5.111e-03
-0.660   -4.654e-03   -4.654e-03   -4.654e-03
-0.650   -4.252e-03   -4.252e-03   -4.252e-03
-0.640   -3.893e-03   -3.893e-03   -3.893e-03
-0.630   -3.565e-03   -3.565e-03   -3.565e-03
-0.620   -3.263e-03   -3.263e-03   -3.263e-03
-0.610   -2.980e-03   -2.980e-03   -2.980e-03
-0.600   -2.714e-03   -2.714e-03   -2.714e-03
-0.590   -2.463e-03   -2.463e-03   -2.463e-03
-0.580   -2.225e-03   -2.225e-03   -2.225e-03
-0.570   -1.999e-03   -1.999e-03   -1.999e-03
-0.560   -1.785e-03   -1.785e-03   -1.785e-03
-0.550   -1.584e-03   -1.584e-03   -1.584e-03
-0.540   -1.396e-03   -1.396e-03   -1.396e-03
-0.530   -1.218e-03   -1.218e-03   -1.218e-03
-0.520   -1.052e-03   -1.052e-03   -1.052e-03
-0.510   -8.974e-04   -8.974e-04   -8.974e-04
-0.500   -7.543e-04   -7.543e-04   -7.543e-04
-0.490   -6.250e-04   -6.250e-04   -6.250e-04
-0.480   -5.209e-04   -5.209e-04   -5.209e-04
-0.470   -4.265e-04   -4.265e-04   -4.265e-04
-0.460   -3.417e-04   -3.417e-04   -3.417e-04
-0.450   -2.664e-04   -2.664e-04   -2.664e-04
-0.440   -2.006e-04   -2.006e-04   -2.006e-04
-0.430   -1.490e-04   -1.490e-04   -1.490e-04
-0.420   -1.221e-04   -1.221e-04   -1.221e-04
-0.400   -8.130e-05   -8.130e-05   -8.130e-05
-0.380   -5.340e-05   -5.340e-05   -5.340e-05
-0.360   -3.470e-05   -3.470e-05   -3.470e-05
-0.330   -1.770e-05   -1.770e-05   -1.770e-05
-0.280   -5.400e-06   -5.400e-06   -5.400e-06
-0.110   -0.000e+00   -0.000e+00   -0.000e+00
10.000    0.000e+00    0.000e+00    0.000e+00
|
[POWER_Clamp]
|Voltage   I(typ)       I(min)       I(max)
 5.110   -0.000e+00   -0.000e+00   -0.000e+00
-5.000    0.000e+00    0.000e+00    0.000e+00
[Rising Waveform]
R_fixture = 50.0000
V_fixture = 0.0000
V_fixture_min = 0.0000
V_fixture_max = 0.0000
|Time         Typ(v)       Min(v)       Max(v)
0.0000n        0.0000     0.0000      0.0000
0.2000n        0.0000     0.0000      0.0000
0.3000n        0.0000     0.0000      0.0000
0.3600n        0.0000     0.0000      0.0000
0.4000n        0.0499     0.0499      0.0499
0.4400n        0.2397     0.2397      0.2397
0.4600n        0.3785     0.3785      0.3785
0.4800n        0.5539     0.5539      0.5539
0.5000n        0.7418     0.7418      0.7418
0.5200n        0.9472     0.9472      0.9472
0.5400n        1.1505     1.1505      1.1505
0.5600n        1.3509     1.3509      1.3509
0.5800n        1.5376     1.5376      1.5376
0.6000n        1.7052     1.7052      1.7052
0.6200n        1.8547     1.8547      1.8547
0.6400n        1.9788     1.9788      1.9788
0.6600n        2.0862     2.0862      2.0862
0.6800n        2.1700     2.1700      2.1700
0.7000n        2.2408     2.2408      2.2408
0.7200n        2.2931     2.2931      2.2931
0.7400n        2.3368     2.3368      2.3368
0.7600n        2.3681     2.3681      2.3681
0.7800n        2.3940     2.3940      2.3940
0.8000n        2.4123     2.4123      2.4123
0.8200n        2.4274     2.4274      2.4274
0.8400n        2.4383     2.4383      2.4383
0.8600n        2.4474     2.4474      2.4474
0.8800n        2.4541     2.4541      2.4541
0.9000n        2.4599     2.4599      2.4599
0.9200n        2.4644     2.4644      2.4644
0.9400n        2.4682     2.4682      2.4682
0.9600n        2.4714     2.4714      2.4714
0.9800n        2.4741     2.4741      2.4741
1.0000n        2.4764     2.4764      2.4764
1.0200n        2.4785     2.4785      2.4785
1.0400n        2.4802     2.4802      2.4802
1.0600n        2.4817     2.4817      2.4817
1.0800n        2.4830     2.4830      2.4830
1.1000n        2.4842     2.4842      2.4842
1.1200n        2.4852     2.4852      2.4852
1.1400n        2.4860     2.4860      2.4860
1.1600n        2.4868     2.4868      2.4868
1.1800n        2.4875     2.4875      2.4875
1.2200n        2.4885     2.4885      2.4885
1.2400n        2.4890     2.4890      2.4890
1.2800n        2.4897     2.4897      2.4897
1.3000n        2.4899     2.4899      2.4899
1.3200n        2.4902     2.4902      2.4902
1.3600n        2.4906     2.4906      2.4906
1.3800n        2.4908     2.4908      2.4908
1.4400n        2.4911     2.4911      2.4911
1.4800n        2.4913     2.4913      2.4913
1.5200n        2.4914     2.4914      2.4914
1.5600n        2.4915     2.4915      2.4915
1.6000n        2.4916     2.4916      2.4916
1.6400n        2.4917     2.4917      2.4917
1.6800n        2.4917     2.4917      2.4917
1.7000n        2.4917     2.4917      2.4917
1.7200n        2.4918     2.4918      2.4918
1.8600n        2.4918     2.4918      2.4918
1.9400n        2.4918     2.4918      2.4918
2.0000n        2.4918     2.4918      2.4918
2.0400n        2.4919     2.4919      2.4919
24.9800n        2.4919     2.4919      2.4919
|
[Rising Waveform]
R_fixture = 50.0000
V_fixture = 5.0000
V_fixture_min = 5.0000
V_fixture_max = 5.0000
|Time         Typ(v)       Min(v)       Max(v)
0.0000n        0.7331     0.7331      0.7331
0.0400n        0.7331     0.7331      0.7331
0.0800n        0.7331     0.7331      0.7331
0.1000n        0.7431     0.7431      0.7431
0.1200n        0.7991     0.7991      0.7991
0.1400n        0.9310     0.9310      0.9310
0.1600n        1.1338     1.1338      1.1338
0.1800n        1.5062     1.5062      1.5062
0.2000n        1.9508     1.9508      1.9508
0.2200n        2.4457     2.4457      2.4457
0.2400n        2.9143     2.9143      2.9143
0.2600n        3.3670     3.3670      3.3670
0.2800n        3.7378     3.7378      3.7378
0.3000n        4.0593     4.0593      4.0593
0.3200n        4.3083     4.3083      4.3083
0.3400n        4.5136     4.5136      4.5136
0.3600n        4.6672     4.6672      4.6672
0.3800n        4.7896     4.7896      4.7896
0.4000n        4.8768     4.8768      4.8768
0.4200n        4.9427     4.9427      4.9427
0.4400n        4.9865     4.9865      4.9865
0.4600n        5.0170     5.0170      5.0170
0.4800n        5.0351     5.0351      5.0351
0.5000n        5.0457     5.0457      5.0457
0.5200n        5.0501     5.0501      5.0501
0.5400n        5.0508     5.0508      5.0508
24.9800n        5.0508     5.0508      5.0508
|
[Falling Waveform]
R_fixture = 50.0000
V_fixture = 0.0000
V_fixture_min = 0.0000
V_fixture_max = 0.0000
|Time         Typ(v)       Min(v)       Max(v)
0.0000n        2.4919     2.4919      2.4919
0.0600n        2.4919     2.4919      2.4919
0.1000n        2.4919     2.4919      2.4919
0.1200n        2.4875     2.4875      2.4875
0.1400n        2.4854     2.4854      2.4854
0.1600n        2.4878     2.4878      2.4878
0.1800n        2.4919     2.4919      2.4919
0.2800n        2.4919     2.4919      2.4919
0.3400n        2.4919     2.4919      2.4919
0.3800n        2.4743     2.4743      2.4743
0.4000n        2.4369     2.4369      2.4369
0.4200n        2.3874     2.3874      2.3874
0.4400n        2.3365     2.3365      2.3365
0.4600n        2.2747     2.2747      2.2747
0.4800n        2.2116     2.2116      2.2116
0.5000n        2.1377     2.1377      2.1377
0.5200n        2.0625     2.0625      2.0625
0.5400n        1.9741     1.9741      1.9741
0.5600n        1.8843     1.8843      1.8843
0.5800n        1.7728     1.7728      1.7728
0.6000n        1.6589     1.6589      1.6589
0.6200n        1.5304     1.5304      1.5304
0.6400n        1.4074     1.4074      1.4074
0.6600n        1.2504     1.2504      1.2504
0.6800n        1.0927     1.0927      1.0927
0.7000n        0.9346     0.9346      0.9346
0.7200n        0.7726     0.7726      0.7726
0.7400n        0.6082     0.6082      0.6082
0.7600n        0.4625     0.4625      0.4625
0.7800n        0.3282     0.3282      0.3282
0.8000n        0.2283     0.2283      0.2283
0.8200n        0.1496     0.1496      0.1496
0.8400n        0.0977     0.0977      0.0977
0.8600n        0.0624     0.0624      0.0624
0.8800n        0.0396     0.0396      0.0396
0.9000n        0.0244     0.0244      0.0244
0.9200n        0.0148     0.0148      0.0148
0.9400n        0.0086     0.0086      0.0086
0.9600n        0.0055     0.0055      0.0055
0.9800n        0.0043     0.0043      0.0043
1.0000n        0.0045     0.0045      0.0045
1.0200n        0.0056     0.0056      0.0056
1.0400n        0.0069     0.0069      0.0069
1.0600n        0.0082     0.0082      0.0082
1.0800n        0.0093     0.0093      0.0093
1.1000n        0.0103     0.0103      0.0103
1.1200n        0.0110     0.0110      0.0110
1.1400n        0.0115     0.0115      0.0115
1.1600n        0.0118     0.0118      0.0118
1.1800n        0.0120     0.0120      0.0120
1.2000n        0.0120     0.0120      0.0120
1.2200n        0.0119     0.0119      0.0119
1.2600n        0.0115     0.0115      0.0115
1.3000n        0.0109     0.0109      0.0109
1.3400n        0.0104     0.0104      0.0104
1.4000n        0.0098     0.0098      0.0098
1.5000n        0.0090     0.0090      0.0090
1.6000n        0.0083     0.0083      0.0083
1.7400n        0.0074     0.0074      0.0074
1.9400n        0.0063     0.0063      0.0063
2.1000n        0.0055     0.0055      0.0055
2.2600n        0.0048     0.0048      0.0048
2.3600n        0.0045     0.0045      0.0045
2.4200n        0.0042     0.0042      0.0042
2.5000n        0.0040     0.0040      0.0040
2.6000n        0.0036     0.0036      0.0036
2.6600n        0.0035     0.0035      0.0035
2.7000n        0.0033     0.0033      0.0033
2.9000n        0.0028     0.0028      0.0028
3.0800n        0.0024     0.0024      0.0024
3.2400n        0.0021     0.0021      0.0021
3.3800n        0.0019     0.0019      0.0019
3.7000n        0.0016     0.0016      0.0016
3.9000n        0.0015     0.0015      0.0015
4.0200n        0.0015     0.0015      0.0015
4.1000n        0.0015     0.0015      0.0015
4.1400n        0.0016     0.0016      0.0016
4.1800n        0.0019     0.0019      0.0019
4.2400n        0.0022     0.0022      0.0022
4.2800n        0.0023     0.0023      0.0023
4.4000n        0.0023     0.0023      0.0023
4.5200n        0.0021     0.0021      0.0021
4.9200n        0.0017     0.0017      0.0017
5.3800n        0.0014     0.0014      0.0014
6.2000n        0.0011     0.0011      0.0011
7.9200n        0.0008     0.0008      0.0008
12.6000n        0.0004     0.0004      0.0004
24.9800n        0.0001     0.0001      0.0001
|
[Falling Waveform]
R_fixture = 50.0000
V_fixture = 5.0000
V_fixture_min = 5.0000
V_fixture_max = 5.0000
|Time         Typ(v)       Min(v)       Max(v)
0.0000n        5.0000     5.0000      5.0000
0.1200n        4.9968     4.9968      4.9968
0.2200n        5.0000     5.0000      5.0000
0.3000n        5.0000     5.0000      5.0000
0.4600n        4.9866     4.9866      4.9866
0.5400n        4.9797     4.9797      4.9797
0.6400n        4.9610     4.9610      4.9610
0.7000n        4.9533     4.9533      4.9533
0.7400n        4.9552     4.9552      4.9552
0.8400n        4.9807     4.9807      4.9807
0.9000n        4.9928     4.9928      4.9928
0.9400n        4.9967     4.9967      4.9967
0.9800n        4.9964     4.9964      4.9964
1.0200n        4.9912     4.9912      4.9912
1.0600n        4.9805     4.9805      4.9805
1.1000n        4.9647     4.9647      4.9647
1.1600n        4.9333     4.9333      4.9333
1.2400n        4.8824     4.8824      4.8824
1.3200n        4.8257     4.8257      4.8257
1.4400n        4.7320     4.7320      4.7320
1.6600n        4.5493     4.5493      4.5493
1.8000n        4.4356     4.4356      4.4356
1.9200n        4.3437     4.3437      4.3437
2.0200n        4.2721     4.2721      4.2721
2.1200n        4.2052     4.2052      4.2052
2.2200n        4.1438     4.1438      4.1438
2.3200n        4.0872     4.0872      4.0872
2.4200n        4.0360     4.0360      4.0360
2.5200n        3.9894     3.9894      3.9894
2.6200n        3.9475     3.9475      3.9475
2.7200n        3.9096     3.9096      3.9096
2.8400n        3.8695     3.8695      3.8695
2.9600n        3.8345     3.8345      3.8345
3.0800n        3.8040     3.8040      3.8040
3.2200n        3.7735     3.7735      3.7735
3.3800n        3.7442     3.7442      3.7442
3.6600n        3.7038     3.7038      3.7038
3.8200n        3.6826     3.6826      3.6826
3.9200n        3.6639     3.6639      3.6639
4.0200n        3.6397     3.6397      3.6397
4.1200n        3.6110     3.6110      3.6110
4.2400n        3.5709     3.5709      3.5709
4.3600n        3.5257     3.5257      3.5257
4.5000n        3.4675     3.4675      3.4675
4.6600n        3.3949     3.3949      3.3949
4.8400n        3.3069     3.3069      3.3069
5.0400n        3.2025     3.2025      3.2025
5.2800n        3.0704     3.0704      3.0704
5.5800n        2.8978     2.8978      2.8978
6.2400n        2.5042     2.5042      2.5042
6.5800n        2.3010     2.3010      2.3010
6.7600n        2.1951     2.1951      2.1951
6.9200n        2.1048     2.1048      2.1048
7.1400n        1.9878     1.9878      1.9878
7.3600n        1.8758     1.8758      1.8758
7.5000n        1.8073     1.8073      1.8073
7.6000n        1.7606     1.7606      1.7606
7.7200n        1.7101     1.7101      1.7101
7.8800n        1.6496     1.6496      1.6496
8.0600n        1.5877     1.5877      1.5877
8.2800n        1.5180     1.5180      1.5180
8.5200n        1.4477     1.4477      1.4477
8.7800n        1.3766     1.3766      1.3766
9.0800n        1.3000     1.3000      1.3000
9.3200n        1.2422     1.2422      1.2422
9.4600n        1.2098     1.2098      1.2098
9.5800n        1.1862     1.1862      1.1862
9.8200n        1.1494     1.1494      1.1494
10.0800n        1.1145     1.1145      1.1145
10.3800n        1.0795     1.0795      1.0795
10.7200n        1.0453     1.0453      1.0453
11.0800n        1.0141     1.0141      1.0141
11.5000n        0.9831     0.9831      0.9831
11.9600n        0.9542     0.9542      0.9542
12.5000n        0.9258     0.9258      0.9258
13.1000n        0.8997     0.8997      0.8997
13.8000n        0.8747     0.8747      0.8747
14.6000n        0.8516     0.8516      0.8516
15.5400n        0.8301     0.8301      0.8301
16.6400n        0.8106     0.8106      0.8106
17.9400n        0.7931     0.7931      0.7931
19.5600n        0.7773     0.7773      0.7773
21.6000n        0.7636     0.7636      0.7636
24.9800n        0.7499     0.7499      0.7499
|
[Model]     obuf_10k_5v_BI
Model_type   I/O
|

Vinh = 2.0000
Vinl = 0.8000
Vmeas = 1.5000
Cref = 5.00e-11
Rref = 1.00e+05
Vref = 0.00e+00
C_comp      3.0000pF   NA      NA
|
|
[Temperature Range]   25.0000            25.0000           25.0000
[Voltage Range]        5.0000           5.0000              5.0000
[Pulldown]
| voltage            I(typ)        I(min)          I(max)
-5.000              -8.290e-04      -8.290e-04      -8.290e-04
-3.000              -8.290e-04      -8.290e-04      -8.290e-04
-2.000              -8.290e-04      -8.290e-04      -8.290e-04
-1.490              -8.290e-04      -8.290e-04      -8.290e-04
-1.230              -8.290e-04      -8.290e-04      -8.290e-04
-1.100              -8.290e-04      -8.290e-04      -8.290e-04
-1.030              -8.290e-04      -8.290e-04      -8.290e-04
-0.990              -3.399e-02      -3.399e-02      -3.399e-02
-0.900              -5.644e-02      -5.644e-02      -5.644e-02
-0.850              -6.947e-02      -6.947e-02      -6.947e-02
-0.820              -7.620e-02      -7.620e-02      -7.620e-02
-0.800              -7.988e-02      -7.988e-02      -7.988e-02
-0.780              -8.273e-02      -8.273e-02      -8.273e-02
-0.770              -8.378e-02      -8.378e-02      -8.378e-02
-0.760              -8.457e-02      -8.457e-02      -8.457e-02